
# -------------------------
# System construction
# -------------------------

lattice         fcc ${rho}
lattice         fcc 0.8
Lattice spacing in x,y,z = 1.7099759 1.7099759 1.7099759
region          RBOX block 0 ${ncell} 0 ${ncell} 0 ${ncell} units lattice
region          RBOX block 0 8 0 ${ncell} 0 ${ncell} units lattice
region          RBOX block 0 8 0 8 0 ${ncell} units lattice
region          RBOX block 0 8 0 8 0 8 units lattice
create_box      1 RBOX
Created orthogonal box = (0 0 0) to (13.679808 13.679808 13.679808)
  1 by 1 by 1 MPI processor grid
create_atoms    1 box
Created 2048 atoms
  using lattice units in orthogonal box = (0 0 0) to (13.679808 13.679808 13.679808)
  create_atoms CPU = 0.000 seconds
mass            1 ${mass}
mass            1 1

pair_style      lj/cut ${rc}
pair_style      lj/cut 2.5
pair_coeff      1 1 ${eps} ${sig} ${rc}
pair_coeff      1 1 1 ${sig} ${rc}
pair_coeff      1 1 1 1 ${rc}
pair_coeff      1 1 1 1 2.5
pair_modify     shift yes

neighbor        0.3 bin
neigh_modify    every 1 delay 0 check yes

thermo          ${thermo_every}
thermo          500
thermo_style    custom step temp pe ke etotal pxx pyy pzz density lx ly lz
thermo_modify   flush yes

dump            DALL all custom ${dump_every} ${fdump_all} id type x y z
dump            DALL all custom 100 ${fdump_all} id type x y z
dump            DALL all custom 100 o.dump.all.lammpstrj id type x y z
dump_modify     DALL sort id

minimize        1.0e-6 1.0e-8 ${nmin} 100000
minimize        1.0e-6 1.0e-8 10000 100000
Generated 0 of 0 mixed pair_coeff terms from geometric mixing rule
Neighbor list info ...
  update: every = 1 steps, delay = 0 steps, check = yes
  max neighbors/atom: 2000, page size: 100000
  master list distance cutoff = 2.8
  ghost atom cutoff = 2.8
  binsize = 1.4, bins = 10 10 10
  1 neighbor lists, perpetual/occasional/extra = 1 0 0
  (1) pair lj/cut, perpetual
      attributes: half, newton on
      pair build: half/bin/atomonly/newton
      stencil: half/bin/3d
      bin: standard
Per MPI rank memory allocation (min/avg/max) = 4.372 | 4.372 | 4.372 Mbytes
   Step          Temp          PotEng         KinEng         TotEng          Pxx            Pyy            Pzz          Density           Lx             Ly             Lz      
         0   0             -5.9241904      0             -5.9241904     -6.2089666     -6.2089666     -6.2089666      0.8            13.679808      13.679808      13.679808    
         1   0             -5.9241904      0             -5.9241904     -6.2089666     -6.2089666     -6.2089666      0.8            13.679808      13.679808      13.679808    
Loop time of 0.00442518 on 1 procs for 1 steps with 2048 atoms

107.6% CPU use with 1 MPI tasks x no OpenMP threads

Minimization stats:
  Stopping criterion = energy tolerance
  Energy initial, next-to-last, final = 
      -5.9241904413907   -5.9241904413907   -5.9241904413907
  Force two-norm initial, final = 9.1774629e-13 9.1518702e-13
  Force max component initial, final = 2.9087843e-14 2.9087843e-14
  Final line search alpha, max atom move = 1 2.9087843e-14
  Iterations, force evaluations = 1 2

MPI task timing breakdown:
Section |  min time  |  avg time  |  max time  |%varavg| %total
---------------------------------------------------------------
Pair    | 0.0027155  | 0.0027155  | 0.0027155  |   0.0 | 61.36
Neigh   | 0          | 0          | 0          |   0.0 |  0.00
Comm    | 4.8245e-05 | 4.8245e-05 | 4.8245e-05 |   0.0 |  1.09
Output  | 0          | 0          | 0          |   0.0 |  0.00
Modify  | 0          | 0          | 0          |   0.0 |  0.00
Other   |            | 0.001661   |            |       | 37.55

Nlocal:           2048 ave        2048 max        2048 min
Histogram: 1 0 0 0 0 0 0 0 0 0
Nghost:           4035 ave        4035 max        4035 min
Histogram: 1 0 0 0 0 0 0 0 0 0
Neighs:          79872 ave       79872 max       79872 min
Histogram: 1 0 0 0 0 0 0 0 0 0

Total # of neighbors = 79872
Ave neighs/atom = 39
Neighbor list builds = 0
Dangerous builds = 0
velocity        all create ${temp_hi} ${seed} mom yes rot no dist gaussian
velocity        all create 1 ${seed} mom yes rot no dist gaussian
velocity        all create 1 12345 mom yes rot no dist gaussian
timestep        ${dt}
timestep        0.005

# ============================================================
# 1. NVE: constant N, V, E
# ============================================================
# Energy should be conserved up to integration error.

print           "Starting NVE run"
Starting NVE run
run             0
WARNING: No fixes with time integration, atoms won't move
For more information see https://docs.lammps.org/err0028 (../verlet.cpp:60)
Generated 0 of 0 mixed pair_coeff terms from geometric mixing rule
Per MPI rank memory allocation (min/avg/max) = 4.677 | 4.677 | 4.677 Mbytes
   Step          Temp          PotEng         KinEng         TotEng          Pxx            Pyy            Pzz          Density           Lx             Ly             Lz      
         1   1             -5.9241904      1.4992676     -4.4249229     -5.4017477     -5.418715      -5.4076089      0.8            13.679808      13.679808      13.679808    
Loop time of 5.28e-07 on 1 procs for 0 steps with 2048 atoms

378.8% CPU use with 1 MPI tasks x no OpenMP threads

MPI task timing breakdown:
Section |  min time  |  avg time  |  max time  |%varavg| %total
---------------------------------------------------------------
Pair    | 0          | 0          | 0          |   0.0 |  0.00
Neigh   | 0          | 0          | 0          |   0.0 |  0.00
Comm    | 0          | 0          | 0          |   0.0 |  0.00
Output  | 0          | 0          | 0          |   0.0 |  0.00
Modify  | 0          | 0          | 0          |   0.0 |  0.00
Other   |            | 5.28e-07   |            |       |100.00

Nlocal:           2048 ave        2048 max        2048 min
Histogram: 1 0 0 0 0 0 0 0 0 0
Nghost:           4035 ave        4035 max        4035 min
Histogram: 1 0 0 0 0 0 0 0 0 0
Neighs:          79872 ave       79872 max       79872 min
Histogram: 1 0 0 0 0 0 0 0 0 0

Total # of neighbors = 79872
Ave neighs/atom = 39
Neighbor list builds = 0
Dangerous builds = 0

fix             FNVE all nve
run             ${nrun}
run             20000
Generated 0 of 0 mixed pair_coeff terms from geometric mixing rule
Per MPI rank memory allocation (min/avg/max) = 4.677 | 4.677 | 4.677 Mbytes
   Step          Temp          PotEng         KinEng         TotEng          Pxx            Pyy            Pzz          Density           Lx             Ly             Lz      
         1   1             -5.9241904      1.4992676     -4.4249229     -5.4017477     -5.418715      -5.4076089      0.8            13.679808      13.679808      13.679808    
       500   0.5302387     -5.2199562      0.79496969    -4.4249865     -1.223506      -1.251824      -1.2115005      0.8            13.679808      13.679808      13.679808    
      1000   0.50669489    -5.1846534      0.75967122    -4.4249822     -1.0627225     -0.99090526    -1.1334671      0.8            13.679808      13.679808      13.679808    
      1500   0.50577745    -5.1833211      0.75829573    -4.4250253     -1.017412      -1.0964205     -0.95773136     0.8            13.679808      13.679808      13.679808    
      2000   0.50181793    -5.1773399      0.75235935    -4.4249805     -0.89511482    -0.98566081    -0.90586404     0.8            13.679808      13.679808      13.679808    
      2500   0.49903609    -5.1732039      0.74818864    -4.4250153     -0.94816141    -0.92579328    -0.93454494     0.8            13.679808      13.679808      13.679808    
      3000   0.51406556    -5.1957591      0.77072183    -4.4250372     -1.1559166     -0.97801748    -1.1272959      0.8            13.679808      13.679808      13.679808    
      3500   0.50324582    -5.179538       0.75450014    -4.4250378     -1.0245051     -1.0619759     -0.95091679     0.8            13.679808      13.679808      13.679808    
      4000   0.50242147    -5.1782991      0.75326421    -4.4250349     -0.99729463    -1.1962502     -0.8328703      0.8            13.679808      13.679808      13.679808    
      4500   0.49980828    -5.1743532      0.74934635    -4.4250068     -0.9944565     -0.98837615    -0.97429328     0.8            13.679808      13.679808      13.679808    
      5000   0.50374122    -5.1802425      0.75524288    -4.4249997     -0.87143399    -1.0799889     -1.0905607      0.8            13.679808      13.679808      13.679808    
      5500   0.49903252    -5.1731714      0.74818328    -4.4249881     -1.1403859     -0.97361581    -1.0350086      0.8            13.679808      13.679808      13.679808    
      6000   0.49854754    -5.1724895      0.74745616    -4.4250333     -1.0175255     -0.93646658    -0.85724281     0.8            13.679808      13.679808      13.679808    
      6500   0.50522152    -5.1824638      0.75746224    -4.4250016     -0.93619385    -0.98752641    -1.1794889      0.8            13.679808      13.679808      13.679808    
      7000   0.51030638    -5.1900709      0.76508581    -4.4249851     -1.0378473     -1.0650337     -1.0039419      0.8            13.679808      13.679808      13.679808    
      7500   0.49750278    -5.170841       0.7458898     -4.4249512     -0.87974591    -0.99454489    -0.88360969     0.8            13.679808      13.679808      13.679808    
      8000   0.50459632    -5.1815133      0.7565249     -4.4249884     -1.0163158     -0.9537337     -1.0084815      0.8            13.679808      13.679808      13.679808    
      8500   0.50969889    -5.1891653      0.76417502    -4.4249903     -1.0357359     -1.0778925     -1.0072266      0.8            13.679808      13.679808      13.679808    
      9000   0.49924057    -5.1734152      0.7484952     -4.42492       -0.87025556    -0.99373557    -0.8960938      0.8            13.679808      13.679808      13.679808    
      9500   0.50461693    -5.1815086      0.7565558     -4.4249528     -0.90526011    -1.0181625     -1.0776003      0.8            13.679808      13.679808      13.679808    
     10000   0.50629675    -5.1840309      0.75907431    -4.4249565     -1.0337964     -0.92022132    -1.0143869      0.8            13.679808      13.679808      13.679808    
     10500   0.52223604    -5.2079005      0.78297156    -4.4249289     -1.1208404     -0.98752906    -1.1419722      0.8            13.679808      13.679808      13.679808    
     11000   0.51145769    -5.1917336      0.76681193    -4.4249217     -0.99811765    -1.0105399     -1.0625178      0.8            13.679808      13.679808      13.679808    
     11500   0.49502827    -5.1671327      0.74217983    -4.4249529     -0.98611923    -1.0580159     -1.0206131      0.8            13.679808      13.679808      13.679808    
     12000   0.49986429    -5.1743713      0.74943032    -4.424941      -0.77566569    -0.91530064    -1.0572484      0.8            13.679808      13.679808      13.679808    
     12500   0.50244155    -5.1782368      0.75329432    -4.4249425     -0.91003185    -0.98857278    -0.91902983     0.8            13.679808      13.679808      13.679808    
     13000   0.50761389    -5.1860269      0.76104905    -4.4249778     -1.0120638     -1.0516725     -1.1127835      0.8            13.679808      13.679808      13.679808    
     13500   0.50286787    -5.1788769      0.75393349    -4.4249434     -0.99027161    -1.0516874     -0.91874124     0.8            13.679808      13.679808      13.679808    
     14000   0.51007951    -5.1897283      0.76474567    -4.4249826     -0.96462952    -1.0323897     -0.98127805     0.8            13.679808      13.679808      13.679808    
     14500   0.49917138    -5.1733216      0.74839147    -4.4249302     -1.0551395     -1.0029252     -0.95135528     0.8            13.679808      13.679808      13.679808    
     15000   0.50365226    -5.180048       0.7551095     -4.4249385     -1.1100534     -0.96636682    -1.0018778      0.8            13.679808      13.679808      13.679808    
     15500   0.49795655    -5.1715092      0.74657011    -4.4249391     -0.95371155    -0.93117218    -0.96049231     0.8            13.679808      13.679808      13.679808    
     16000   0.51051378    -5.1903318      0.76539676    -4.424935      -0.93261514    -1.1066964     -1.1123437      0.8            13.679808      13.679808      13.679808    
     16500   0.49599171    -5.1685283      0.74362429    -4.424904      -0.92817546    -0.99051013    -0.92697913     0.8            13.679808      13.679808      13.679808    
     17000   0.50370713    -5.180175       0.75519177    -4.4249832     -0.98343412    -0.88680957    -0.91111844     0.8            13.679808      13.679808      13.679808    
     17500   0.50462344    -5.1814789      0.75656557    -4.4249133     -1.0329128     -0.91131791    -1.0426928      0.8            13.679808      13.679808      13.679808    
     18000   0.50795529    -5.1865003      0.76156089    -4.4249394     -0.84460907    -1.2114489     -1.0469788      0.8            13.679808      13.679808      13.679808    
     18500   0.50392867    -5.1804397      0.75552391    -4.4249158     -0.97260498    -1.0772471     -0.95685706     0.8            13.679808      13.679808      13.679808    
     19000   0.50264724    -5.1785218      0.75360271    -4.4249191     -0.92854572    -1.1036161     -0.99909414     0.8            13.679808      13.679808      13.679808    
     19500   0.49824987    -5.1718886      0.74700988    -4.4248787     -0.89107728    -0.98853649    -1.0375473      0.8            13.679808      13.679808      13.679808    
     20000   0.49933484    -5.1735178      0.74863653    -4.4248813     -0.97493064    -0.96958427    -0.91643485     0.8            13.679808      13.679808      13.679808    
     20001   0.4989209     -5.1728982      0.74801593    -4.4248822     -0.98159037    -0.95219808    -0.91552911     0.8            13.679808      13.679808      13.679808    
Loop time of 12.4014 on 1 procs for 20000 steps with 2048 atoms

Performance: 696694.947 tau/day, 1612.720 timesteps/s, 3.303 Matom-step/s
109.1% CPU use with 1 MPI tasks x no OpenMP threads

MPI task timing breakdown:
Section |  min time  |  avg time  |  max time  |%varavg| %total
---------------------------------------------------------------
Pair    | 8.1403     | 8.1403     | 8.1403     |   0.0 | 65.64
Neigh   | 3.5768     | 3.5768     | 3.5768     |   0.0 | 28.84
Comm    | 0.23839    | 0.23839    | 0.23839    |   0.0 |  1.92
Output  | 0.18378    | 0.18378    | 0.18378    |   0.0 |  1.48
Modify  | 0.16726    | 0.16726    | 0.16726    |   0.0 |  1.35
Other   |            | 0.0949     |            |       |  0.77

Nlocal:           2048 ave        2048 max        2048 min
Histogram: 1 0 0 0 0 0 0 0 0 0
Nghost:           3686 ave        3686 max        3686 min
Histogram: 1 0 0 0 0 0 0 0 0 0
Neighs:          72571 ave       72571 max       72571 min
Histogram: 1 0 0 0 0 0 0 0 0 0

Total # of neighbors = 72571
Ave neighs/atom = 35.435059
Neighbor list builds = 1921
Dangerous builds = 0
unfix           FNVE

# ============================================================
# 2. NVT: constant N, V, T
# ============================================================
# The thermostat exchanges energy with the system.

print           "Starting NVT run at high temperature"
Starting NVT run at high temperature

fix             FNVT all nvt temp ${temp_hi} ${temp_hi} ${tdamp}
fix             FNVT all nvt temp 1 ${temp_hi} ${tdamp}
fix             FNVT all nvt temp 1 1 ${tdamp}
fix             FNVT all nvt temp 1 1 0.5
run             ${nrun}
run             20000
Generated 0 of 0 mixed pair_coeff terms from geometric mixing rule
Per MPI rank memory allocation (min/avg/max) = 4.677 | 4.677 | 4.677 Mbytes
   Step          Temp          PotEng         KinEng         TotEng          Pxx            Pyy            Pzz          Density           Lx             Ly             Lz      
     20001   0.4989209     -5.1728982      0.74801593    -4.4248822     -0.98159037    -0.95219808    -0.91552911     0.8            13.679808      13.679808      13.679808    
     20500   0.9539984     -4.7633271      1.4302989     -3.3330282      1.2265258      1.3777579      1.2473181      0.8            13.679808      13.679808      13.679808    
     21000   0.93703016    -4.6751355      1.4048589     -3.2702766      1.7588683      1.7920685      1.6639682      0.8            13.679808      13.679808      13.679808    
     21500   0.95997562    -4.6834624      1.4392603     -3.244202       1.643538       1.5921774      1.8815504      0.8            13.679808      13.679808      13.679808    
     22000   0.98315476    -4.6818365      1.4740121     -3.2078244      1.7212358      1.7061503      1.6933685      0.8            13.679808      13.679808      13.679808    
     22500   0.99992004    -4.706759       1.4991477     -3.2076113      1.6525589      1.7330841      1.4771509      0.8            13.679808      13.679808      13.679808    
     23000   0.99859216    -4.6476441      1.4971568     -3.1504873      2.0297801      1.6892382      1.7438172      0.8            13.679808      13.679808      13.679808    
     23500   0.99075106    -4.6742443      1.4854009     -3.1888434      1.711967       1.7724256      1.8217058      0.8            13.679808      13.679808      13.679808    
     24000   0.98829899    -4.7050356      1.4817246     -3.223311       1.7443847      1.5633535      1.6455839      0.8            13.679808      13.679808      13.679808    
     24500   0.99702645    -4.7378713      1.4948094     -3.2430618      1.4677908      1.3544829      1.5969966      0.8            13.679808      13.679808      13.679808    
     25000   0.99372636    -4.7053427      1.4898617     -3.215481       1.7565042      1.529203       1.7373561      0.8            13.679808      13.679808      13.679808    
     25500   1.0039062     -4.6807693      1.505124      -3.1756453      1.6918361      1.9840623      1.7052037      0.8            13.679808      13.679808      13.679808    
     26000   0.97939363    -4.617291       1.4683731     -3.1489179      1.9941636      1.8873277      2.0871975      0.8            13.679808      13.679808      13.679808    
     26500   1.0028667     -4.6933251      1.5035656     -3.1897595      1.829101       1.5749878      1.5960005      0.8            13.679808      13.679808      13.679808    
     27000   1.0082544     -4.7166137      1.5116431     -3.2049706      1.4966494      1.4952933      1.6798641      0.8            13.679808      13.679808      13.679808    
     27500   0.98588081    -4.7114954      1.4780991     -3.2333962      1.734422       1.5133516      1.4987197      0.8            13.679808      13.679808      13.679808    
     28000   0.98974997    -4.6578166      1.4839        -3.1739165      1.8873792      1.8621655      1.7532899      0.8            13.679808      13.679808      13.679808    
     28500   0.99201849    -4.6643078      1.4873012     -3.1770067      1.7992138      1.6890984      1.8740702      0.8            13.679808      13.679808      13.679808    
     29000   0.99553272    -4.6741338      1.4925699     -3.1815639      1.6783889      1.769661       1.9543804      0.8            13.679808      13.679808      13.679808    
     29500   0.97773953    -4.7178038      1.4658932     -3.2519106      1.4638111      1.7280966      1.4538771      0.8            13.679808      13.679808      13.679808    
     30000   0.99974775    -4.7260681      1.4988894     -3.2271787      1.5563777      1.5336549      1.3865914      0.8            13.679808      13.679808      13.679808    
     30500   0.9872367     -4.6946697      1.480132      -3.2145377      1.6111202      1.6935368      1.5991265      0.8            13.679808      13.679808      13.679808    
     31000   0.98672449    -4.7155094      1.479364      -3.2361454      1.5891171      1.4508511      1.5192103      0.8            13.679808      13.679808      13.679808    
     31500   0.99548872    -4.7153496      1.492504      -3.2228456      1.6755487      1.459067       1.6611823      0.8            13.679808      13.679808      13.679808    
     32000   0.99267561    -4.6702665      1.4882864     -3.1819801      1.7042141      1.8269717      1.7135554      0.8            13.679808      13.679808      13.679808    
     32500   0.98982569    -4.6428         1.4840136     -3.1587864      1.8670634      1.7323733      1.9608585      0.8            13.679808      13.679808      13.679808    
     33000   1.021301      -4.6726174      1.5312035     -3.1414139      1.7913021      1.7654353      1.7740865      0.8            13.679808      13.679808      13.679808    
     33500   1.0290247     -4.6640156      1.5427833     -3.1212322      1.9697572      1.742322       1.8649193      0.8            13.679808      13.679808      13.679808    
     34000   1.0025521     -4.7083255      1.5030939     -3.2052317      1.7098177      1.4371358      1.6039546      0.8            13.679808      13.679808      13.679808    
     34500   0.99055275    -4.7113317      1.4851036     -3.2262281      1.4993645      1.6191111      1.591491       0.8            13.679808      13.679808      13.679808    
     35000   0.95620886    -4.6512437      1.4336129     -3.2176307      1.7765067      1.8290669      1.8267903      0.8            13.679808      13.679808      13.679808    
     35500   1.0286368     -4.7074782      1.5422018     -3.1652763      1.6388719      1.4614075      1.5627926      0.8            13.679808      13.679808      13.679808    
     36000   1.0345279     -4.6768946      1.5510341     -3.1258604      1.8339548      1.6310396      1.6306933      0.8            13.679808      13.679808      13.679808    
     36500   1.0273114     -4.7038026      1.5402147     -3.1635879      1.6842618      1.552706       1.6792858      0.8            13.679808      13.679808      13.679808    
     37000   0.99258061    -4.6511719      1.4881439     -3.1630279      2.0255443      1.9102495      1.7199435      0.8            13.679808      13.679808      13.679808    
     37500   0.98243303    -4.6694905      1.47293       -3.1965605      1.7694988      1.8690139      1.790526       0.8            13.679808      13.679808      13.679808    
     38000   0.99214906    -4.6898928      1.4874969     -3.2023959      1.6653027      1.6694797      1.7722351      0.8            13.679808      13.679808      13.679808    
     38500   0.99919438    -4.6799576      1.4980597     -3.1818979      1.7413928      1.7219441      1.7075237      0.8            13.679808      13.679808      13.679808    
     39000   0.98931489    -4.7248903      1.4832477     -3.2416425      1.4568554      1.2629093      1.6775172      0.8            13.679808      13.679808      13.679808    
     39500   0.98762127    -4.6986317      1.4807085     -3.2179232      1.5292466      1.7875123      1.4774158      0.8            13.679808      13.679808      13.679808    
     40000   0.97075567    -4.6634441      1.4554225     -3.2080216      1.7618765      1.8387497      1.7004002      0.8            13.679808      13.679808      13.679808    
     40001   0.97175027    -4.6648671      1.4569137     -3.2079534      1.7465535      1.8320586      1.7106027      0.8            13.679808      13.679808      13.679808    
Loop time of 13.8488 on 1 procs for 20000 steps with 2048 atoms

Performance: 623881.525 tau/day, 1444.170 timesteps/s, 2.958 Matom-step/s
108.9% CPU use with 1 MPI tasks x no OpenMP threads

MPI task timing breakdown:
Section |  min time  |  avg time  |  max time  |%varavg| %total
---------------------------------------------------------------
Pair    | 8.1465     | 8.1465     | 8.1465     |   0.0 | 58.82
Neigh   | 4.8274     | 4.8274     | 4.8274     |   0.0 | 34.86
Comm    | 0.26653    | 0.26653    | 0.26653    |   0.0 |  1.92
Output  | 0.19382    | 0.19382    | 0.19382    |   0.0 |  1.40
Modify  | 0.3243     | 0.3243     | 0.3243     |   0.0 |  2.34
Other   |            | 0.09023    |            |       |  0.65

Nlocal:           2048 ave        2048 max        2048 min
Histogram: 1 0 0 0 0 0 0 0 0 0
Nghost:           3688 ave        3688 max        3688 min
Histogram: 1 0 0 0 0 0 0 0 0 0
Neighs:          73302 ave       73302 max       73302 min
Histogram: 1 0 0 0 0 0 0 0 0 0

Total # of neighbors = 73302
Ave neighs/atom = 35.791992
Neighbor list builds = 2654
Dangerous builds = 0
unfix           FNVT

# ============================================================
# 3. NVT cooling
# ============================================================

print           "Starting NVT cooling run"
Starting NVT cooling run

fix             FNVT all nvt temp ${temp_lo} ${temp_lo} ${tdamp}
fix             FNVT all nvt temp 0.2 ${temp_lo} ${tdamp}
fix             FNVT all nvt temp 0.2 0.2 ${tdamp}
fix             FNVT all nvt temp 0.2 0.2 0.5
run             ${nrun}
run             20000
Generated 0 of 0 mixed pair_coeff terms from geometric mixing rule
Per MPI rank memory allocation (min/avg/max) = 4.677 | 4.677 | 4.677 Mbytes
   Step          Temp          PotEng         KinEng         TotEng          Pxx            Pyy            Pzz          Density           Lx             Ly             Lz      
     40001   0.97175027    -4.6648671      1.4569137     -3.2079534      1.7465535      1.8320586      1.7106027      0.8            13.679808      13.679808      13.679808    
     40500   0.22352398    -5.5048328      0.33512226    -5.1697105     -2.6680726     -2.6675321     -2.7277051      0.8            13.679808      13.679808      13.679808    
     41000   0.21175242    -5.6778156      0.31747353    -5.360342      -2.4585116     -2.4303454     -2.500966       0.8            13.679808      13.679808      13.679808    
     41500   0.19743724    -5.8633154      0.29601125    -5.5673041     -1.772348      -1.6658215     -1.7985745      0.8            13.679808      13.679808      13.679808    
     42000   0.19718512    -5.967097       0.29563326    -5.6714638     -1.1919959     -1.2072835     -1.3240502      0.8            13.679808      13.679808      13.679808    
     42500   0.19731209    -6.0125614      0.29582362    -5.7167377     -1.161504      -1.2910988     -1.2432175      0.8            13.679808      13.679808      13.679808    
     43000   0.19597351    -6.0732912      0.29381672    -5.7794745     -1.0784991     -1.1097563     -1.1132064      0.8            13.679808      13.679808      13.679808    
     43500   0.19843356    -6.0939302      0.29750501    -5.7964252     -1.0347847     -1.1319926     -1.0159756      0.8            13.679808      13.679808      13.679808    
     44000   0.19840929    -6.1033475      0.29746861    -5.8058789     -1.0148318     -1.0367551     -0.97533986     0.8            13.679808      13.679808      13.679808    
     44500   0.19683926    -6.1156885      0.29511472    -5.8205737     -0.98621567    -0.93401465    -0.98204424     0.8            13.679808      13.679808      13.679808    
     45000   0.19650772    -6.1262897      0.29461765    -5.831672      -0.85500283    -0.81170856    -0.87464214     0.8            13.679808      13.679808      13.679808    
     45500   0.20256381    -6.1299208      0.30369735    -5.8262235     -0.96240897    -0.88748504    -1.0491837      0.8            13.679808      13.679808      13.679808    
     46000   0.20258073    -6.1413976      0.30372272    -5.8376749     -0.93675274    -0.86923986    -1.0157086      0.8            13.679808      13.679808      13.679808    
     46500   0.19740751    -6.1535191      0.29596668    -5.8575524     -0.82222629    -0.77407168    -0.98909367     0.8            13.679808      13.679808      13.679808    
     47000   0.19499108    -6.1489232      0.2923438     -5.8565794     -1.0063757     -0.92048387    -1.0403459      0.8            13.679808      13.679808      13.679808    
     47500   0.20079941    -6.1637541      0.30105204    -5.862702      -0.92040749    -0.89841529    -0.94182381     0.8            13.679808      13.679808      13.679808    
     48000   0.19917292    -6.1545032      0.2986135     -5.8558897     -0.91630792    -0.84039882    -1.0021948      0.8            13.679808      13.679808      13.679808    
     48500   0.19913391    -6.1627408      0.29855501    -5.8641858     -0.67673138    -0.8506225     -0.98283035     0.8            13.679808      13.679808      13.679808    
     49000   0.1992374     -6.178052       0.29871017    -5.8793419     -0.85650963    -0.80693407    -1.0070321      0.8            13.679808      13.679808      13.679808    
     49500   0.19405549    -6.1721704      0.29094111    -5.8812293     -0.75543216    -0.79423477    -0.92343897     0.8            13.679808      13.679808      13.679808    
     50000   0.19562534    -6.177179       0.29329473    -5.8838842     -0.67525354    -0.90125413    -0.93892802     0.8            13.679808      13.679808      13.679808    
     50500   0.20544917    -6.1858683      0.30802328    -5.877845      -0.78744998    -0.86010208    -0.83287343     0.8            13.679808      13.679808      13.679808    
     51000   0.20320265    -6.1869169      0.30465515    -5.8822617     -0.69028611    -0.75671608    -0.89086692     0.8            13.679808      13.679808      13.679808    
     51500   0.19782358    -6.185325       0.29659048    -5.8887345     -0.85149299    -0.98662599    -0.79052254     0.8            13.679808      13.679808      13.679808    
     52000   0.20081052    -6.2048183      0.3010687     -5.9037496     -0.7544961     -0.86030485    -0.72671444     0.8            13.679808      13.679808      13.679808    
     52500   0.20165007    -6.2073192      0.30232741    -5.9049918     -0.76900966    -0.88122183    -0.77484306     0.8            13.679808      13.679808      13.679808    
     53000   0.19988075    -6.2121061      0.29967473    -5.9124313     -0.69621291    -0.88242909    -0.80367564     0.8            13.679808      13.679808      13.679808    
     53500   0.20378074    -6.2129341      0.30552185    -5.9074123     -0.75764653    -0.84840438    -0.79706196     0.8            13.679808      13.679808      13.679808    
     54000   0.19737732    -6.2159243      0.29592142    -5.9200029     -0.70707589    -0.69013068    -0.68019118     0.8            13.679808      13.679808      13.679808    
     54500   0.20041114    -6.2278629      0.30046992    -5.927393      -0.64421969    -0.74114342    -0.71556945     0.8            13.679808      13.679808      13.679808    
     55000   0.19958266    -6.220496       0.2992278     -5.9212682     -0.73060189    -0.76827347    -0.78803984     0.8            13.679808      13.679808      13.679808    
     55500   0.19970795    -6.2167365      0.29941566    -5.9173208     -0.71321295    -0.79961924    -0.79314445     0.8            13.679808      13.679808      13.679808    
     56000   0.19927139    -6.2245786      0.29876113    -5.9258175     -0.7071489     -0.8424015     -0.73591344     0.8            13.679808      13.679808      13.679808    
     56500   0.20159694    -6.2427875      0.30224775    -5.9405397     -0.58576471    -0.75610294    -0.69730703     0.8            13.679808      13.679808      13.679808    
     57000   0.19844419    -6.2371875      0.29752094    -5.9396665     -0.56851658    -0.64858911    -0.69392708     0.8            13.679808      13.679808      13.679808    
     57500   0.20797361    -6.2300306      0.31180809    -5.9182225     -0.47960202    -0.70022338    -0.49603841     0.8            13.679808      13.679808      13.679808    
     58000   0.20005543    -6.2486694      0.29993662    -5.9487328     -0.53950984    -0.71851761    -0.51591318     0.8            13.679808      13.679808      13.679808    
     58500   0.19891845    -6.237944       0.29823199    -5.939712      -0.63541227    -0.84090098    -0.59893643     0.8            13.679808      13.679808      13.679808    
     59000   0.20201882    -6.2414388      0.30288027    -5.9385586     -0.53495853    -0.87756135    -0.61024742     0.8            13.679808      13.679808      13.679808    
     59500   0.20102403    -6.2367866      0.30138882    -5.9353978     -0.60257442    -0.76628246    -0.5966647      0.8            13.679808      13.679808      13.679808    
     60000   0.19971927    -6.2528096      0.29943263    -5.953377      -0.55080608    -0.69469801    -0.69826438     0.8            13.679808      13.679808      13.679808    
     60001   0.19883226    -6.2515312      0.29810276    -5.9534284     -0.54719383    -0.68775206    -0.69360398     0.8            13.679808      13.679808      13.679808    
Loop time of 11.6402 on 1 procs for 20000 steps with 2048 atoms

Performance: 742256.513 tau/day, 1718.186 timesteps/s, 3.519 Matom-step/s
108.5% CPU use with 1 MPI tasks x no OpenMP threads

MPI task timing breakdown:
Section |  min time  |  avg time  |  max time  |%varavg| %total
---------------------------------------------------------------
Pair    | 8.6352     | 8.6352     | 8.6352     |   0.0 | 74.18
Neigh   | 2.2054     | 2.2054     | 2.2054     |   0.0 | 18.95
Comm    | 0.19708    | 0.19708    | 0.19708    |   0.0 |  1.69
Output  | 0.18917    | 0.18917    | 0.18917    |   0.0 |  1.63
Modify  | 0.32809    | 0.32809    | 0.32809    |   0.0 |  2.82
Other   |            | 0.08524    |            |       |  0.73

Nlocal:           2048 ave        2048 max        2048 min
Histogram: 1 0 0 0 0 0 0 0 0 0
Nghost:           3779 ave        3779 max        3779 min
Histogram: 1 0 0 0 0 0 0 0 0 0
Neighs:          80844 ave       80844 max       80844 min
Histogram: 1 0 0 0 0 0 0 0 0 0

Total # of neighbors = 80844
Ave neighs/atom = 39.474609
Neighbor list builds = 1201
Dangerous builds = 0
unfix           FNVT

# ============================================================
# 4. Isotropic NPT: lx, ly, and lz change together
# ============================================================

print           "Starting isotropic NPT run"
Starting isotropic NPT run

fix             FNPT all npt temp ${temp_lo} ${temp_lo} ${tdamp} iso ${press_iso} ${press_iso} ${pdamp}
fix             FNPT all npt temp 0.2 ${temp_lo} ${tdamp} iso ${press_iso} ${press_iso} ${pdamp}
fix             FNPT all npt temp 0.2 0.2 ${tdamp} iso ${press_iso} ${press_iso} ${pdamp}
fix             FNPT all npt temp 0.2 0.2 0.5 iso ${press_iso} ${press_iso} ${pdamp}
fix             FNPT all npt temp 0.2 0.2 0.5 iso 1 ${press_iso} ${pdamp}
fix             FNPT all npt temp 0.2 0.2 0.5 iso 1 1 ${pdamp}
fix             FNPT all npt temp 0.2 0.2 0.5 iso 1 1 5
run             ${nrun}
run             20000
Generated 0 of 0 mixed pair_coeff terms from geometric mixing rule
Per MPI rank memory allocation (min/avg/max) = 4.677 | 4.677 | 4.677 Mbytes
   Step          Temp          PotEng         KinEng         TotEng          Pxx            Pyy            Pzz          Density           Lx             Ly             Lz      
     60001   0.19883226    -6.2515312      0.29810276    -5.9534284     -0.54719383    -0.68775206    -0.69360398     0.8            13.679808      13.679808      13.679808    
     60500   0.2025406     -6.3265713      0.30366255    -6.0229088      0.86828744     0.80746524     1.3183557      0.88502008     13.226927      13.226927      13.226927    
     61000   0.20614163    -6.3492842      0.30906147    -6.0402228      0.75350766     1.0315665      1.1395729      0.90527771     13.127521      13.127521      13.127521    
     61500   0.19988146    -6.3745818      0.29967579    -6.074906       0.93442691     0.98481729     1.0431591      0.92885702     13.015485      13.015485      13.015485    
     62000   0.20493271    -6.4170602      0.30724897    -6.1098112      0.97476914     1.0575915      1.0312169      0.95070848     12.914994      12.914994      12.914994    
     62500   0.20009507    -6.4667637      0.29999605    -6.1667677      0.96239138     0.92730014     1.0168718      0.96865026     12.834757      12.834757      12.834757    
     63000   0.19448023    -6.4897962      0.2915779     -6.1982183      0.86161289     1.0496383      1.2044253      0.97672988     12.799269      12.799269      12.799269    
     63500   0.20804022    -6.512536       0.31190796    -6.200628       0.87120952     0.90100461     1.0833294      0.97984297     12.785699      12.785699      12.785699    
     64000   0.20088647    -6.5387728      0.30118257    -6.2375902      0.79217636     0.98324762     1.1810004      0.98817735     12.749653      12.749653      12.749653    
     64500   0.20547833    -6.5586764      0.308067      -6.2506094      0.87389205     1.1471984      1.0701774      0.99507105     12.720142      12.720142      12.720142    
     65000   0.20311621    -6.5898004      0.30452555    -6.2852748      0.66394346     1.1976447      1.1158202      1.000525       12.696987      12.696987      12.696987    
     65500   0.20027762    -6.6136473      0.30026974    -6.3133776      0.83499264     1.0652312      0.95594063     1.0026814      12.687878      12.687878      12.687878    
     66000   0.20089602    -6.6122961      0.30119688    -6.3110992      0.93837916     1.1308345      1.0981247      1.0044749      12.680322      12.680322      12.680322    
     66500   0.19889585    -6.6333244      0.29819811    -6.3351263      0.72461348     0.9768579      1.1381729      1.0052294      12.677149      12.677149      12.677149    
     67000   0.19707374    -6.6349406      0.29546628    -6.3394743      0.70282997     1.0810213      1.3132124      1.0067632      12.670708      12.670708      12.670708    
     67500   0.20104648    -6.6442272      0.30142248    -6.3428047      0.78276405     1.0717646      1.1968296      1.0074561      12.667802      12.667802      12.667802    
     68000   0.20359359    -6.6550252      0.30524127    -6.3497839      0.6970275      1.1074208      1.083472       1.0077316      12.666648      12.666648      12.666648    
     68500   0.20226536    -6.6718778      0.30324989    -6.3686279      1.0482825      1.0716965      1.2335115      1.0118262      12.649538      12.649538      12.649538    
     69000   0.19701048    -6.6855224      0.29537142    -6.3901509      0.8638211      0.94627558     0.93245867     1.0098545      12.657766      12.657766      12.657766    
     69500   0.20335324    -6.6879048      0.30488092    -6.3830239      0.80035378     0.97070237     0.94148163     1.0097587      12.658166      12.658166      12.658166    
     70000   0.1970696     -6.6823862      0.29546006    -6.3869261      1.0404778      1.3298419      1.1986532      1.0144929      12.638445      12.638445      12.638445    
     70500   0.18960564    -6.711653       0.28426958    -6.4273834      0.7184478      0.940924       0.85133816     1.0112561      12.651915      12.651915      12.651915    
     71000   0.199866      -6.7042595      0.29965261    -6.4046069      0.90718649     1.2570391      1.16392        1.0150392      12.636177      12.636177      12.636177    
     71500   0.20496938    -6.708429       0.30730395    -6.401125       0.96227636     1.0695339      0.96941068     1.0132554      12.643588      12.643588      12.643588    
     72000   0.19907233    -6.7147356      0.29846268    -6.4162729      0.74335826     1.0104266      1.0154629      1.0125868      12.64637       12.64637       12.64637     
     72500   0.19915849    -6.7167476      0.29859187    -6.4181557      0.98492998     1.2532236      0.97956658     1.0153773      12.634775      12.634775      12.634775    
     73000   0.19895071    -6.728684       0.29828035    -6.4304037      0.90037905     1.0060476      0.8856624      1.0142284      12.639543      12.639543      12.639543    
     73500   0.1990356     -6.7358671      0.29840762    -6.4374595      0.86395527     1.0972515      0.96299548     1.0158871      12.632661      12.632661      12.632661    
     74000   0.19725395    -6.7373081      0.29573645    -6.4415717      0.95245161     1.1961789      0.89173059     1.0163724      12.63065       12.63065       12.63065     
     74500   0.20228024    -6.7335489      0.30327221    -6.4302767      1.0883237      0.97917851     0.88518437     1.0155538      12.634043      12.634043      12.634043    
     75000   0.20345721    -6.7347266      0.30503679    -6.4296898      0.97865925     1.1480235      0.87466947     1.0159302      12.632482      12.632482      12.632482    
     75500   0.19850583    -6.7415599      0.29761336    -6.4439466      0.8921171      1.1162474      0.77312113     1.0155418      12.634093      12.634093      12.634093    
     76000   0.19979843    -6.7453902      0.29955131    -6.4458388      1.0941324      1.2216419      1.0044434      1.018727       12.620911      12.620911      12.620911    
     76500   0.20171751    -6.7454266      0.30242852    -6.4429981      0.84825774     0.97695027     0.71086762     1.0144166      12.638762      12.638762      12.638762    
     77000   0.21013849    -6.7377411      0.31505382    -6.4226873      0.91201851     1.0177518      0.93307484     1.0153643      12.634829      12.634829      12.634829    
     77500   0.19990161    -6.7480446      0.29970601    -6.4483386      1.040583       1.1983927      1.0191909      1.0187303      12.620898      12.620898      12.620898    
     78000   0.20108257    -6.7476214      0.30147658    -6.4461449      0.86783134     0.90173042     0.856477       1.0151086      12.635889      12.635889      12.635889    
     78500   0.19906814    -6.7380921      0.29845642    -6.4396356      0.93475534     1.275092       1.0795949      1.0179481      12.62413       12.62413       12.62413     
     79000   0.19863682    -6.7369991      0.29780975    -6.4391893      0.77172782     1.0936992      1.0302962      1.0160138      12.632136      12.632136      12.632136    
     79500   0.20057861    -6.745594       0.30072101    -6.444873       0.90728436     1.2134003      0.9442801      1.0174847      12.626046      12.626046      12.626046    
     80000   0.19688322    -6.7549002      0.29518063    -6.4597196      0.928219       1.0654938      1.0861088      1.0184752      12.621951      12.621951      12.621951    
     80001   0.19714099    -6.7552259      0.29556709    -6.4596588      0.92602942     1.0533042      1.0911194      1.0184537      12.62204       12.62204       12.62204     
Loop time of 13.8822 on 1 procs for 20000 steps with 2048 atoms

Performance: 622380.275 tau/day, 1440.695 timesteps/s, 2.951 Matom-step/s
109.0% CPU use with 1 MPI tasks x no OpenMP threads

MPI task timing breakdown:
Section |  min time  |  avg time  |  max time  |%varavg| %total
---------------------------------------------------------------
Pair    | 10.404     | 10.404     | 10.404     |   0.0 | 74.95
Neigh   | 2.2607     | 2.2607     | 2.2607     |   0.0 | 16.29
Comm    | 0.2062     | 0.2062     | 0.2062     |   0.0 |  1.49
Output  | 0.19411    | 0.19411    | 0.19411    |   0.0 |  1.40
Modify  | 0.72169    | 0.72169    | 0.72169    |   0.0 |  5.20
Other   |            | 0.09507    |            |       |  0.68

Nlocal:           2048 ave        2048 max        2048 min
Histogram: 1 0 0 0 0 0 0 0 0 0
Nghost:           4075 ave        4075 max        4075 min
Histogram: 1 0 0 0 0 0 0 0 0 0
Neighs:          91877 ave       91877 max       91877 min
Histogram: 1 0 0 0 0 0 0 0 0 0

Total # of neighbors = 91877
Ave neighs/atom = 44.861816
Neighbor list builds = 1168
Dangerous builds = 0
unfix           FNPT

# ============================================================
# 5. Fixed-LxLy PzzT: only lz is barostatted
# ============================================================
# Useful for slab/interface calculations when the lateral area is fixed.

print           "Starting fixed-LxLy PzzT run"
Starting fixed-LxLy PzzT run

fix             FNPZZ all npt temp ${temp_lo} ${temp_lo} ${tdamp} z ${press_z} ${press_z} ${pdamp}
fix             FNPZZ all npt temp 0.2 ${temp_lo} ${tdamp} z ${press_z} ${press_z} ${pdamp}
fix             FNPZZ all npt temp 0.2 0.2 ${tdamp} z ${press_z} ${press_z} ${pdamp}
fix             FNPZZ all npt temp 0.2 0.2 0.5 z ${press_z} ${press_z} ${pdamp}
fix             FNPZZ all npt temp 0.2 0.2 0.5 z 1.5 ${press_z} ${pdamp}
fix             FNPZZ all npt temp 0.2 0.2 0.5 z 1.5 1.5 ${pdamp}
fix             FNPZZ all npt temp 0.2 0.2 0.5 z 1.5 1.5 5
run             ${nrun}
run             20000
Generated 0 of 0 mixed pair_coeff terms from geometric mixing rule
Per MPI rank memory allocation (min/avg/max) = 4.678 | 4.678 | 4.678 Mbytes
   Step          Temp          PotEng         KinEng         TotEng          Pxx            Pyy            Pzz          Density           Lx             Ly             Lz      
     80001   0.19714099    -6.7552259      0.29556709    -6.4596588      0.92602942     1.0533042      1.0911194      1.0184537      12.62204       12.62204       12.62204     
     80500   0.19941249    -6.7568704      0.29897268    -6.4578977      1.2686843      1.6126123      1.3916345      1.0251824      12.62204       12.62204       12.539196    
     81000   0.2036872     -6.7558858      0.30538161    -6.4505042      1.1654615      1.4288382      1.5749297      1.02489        12.62204       12.62204       12.542773    
     81500   0.20668757    -6.7508771      0.30987997    -6.4409971      1.3562885      1.4483357      1.6593772      1.0258         12.62204       12.62204       12.531646    
     82000   0.19242065    -6.7577721      0.28849005    -6.4692821      1.1791542      1.3327636      1.5430375      1.0246312      12.62204       12.62204       12.545941    
     82500   0.20167311    -6.7537294      0.30236196    -6.4513675      1.2785916      1.4774204      1.5543543      1.0253729      12.62204       12.62204       12.536866    
     83000   0.20605015    -6.7601845      0.3089243     -6.4512602      1.1807142      1.300739       1.5219763      1.0239588      12.62204       12.62204       12.554179    
     83500   0.20290662    -6.7572248      0.30421132    -6.4530135      1.2349243      1.39221        1.589659       1.0251965      12.62204       12.62204       12.539023    
     84000   0.19690323    -6.7538941      0.29521064    -6.4586834      1.1877376      1.4129734      1.5953639      1.0249535      12.62204       12.62204       12.541996    
     84500   0.19888281    -6.7490805      0.29817854    -6.4509019      1.2230786      1.3588482      1.4415424      1.0232381      12.62204       12.62204       12.563022    
     85000   0.20891623    -6.7620341      0.31322133    -6.4488128      1.1907023      1.3515033      1.4403032      1.0241443      12.62204       12.62204       12.551906    
     85500   0.19927232    -6.7541561      0.29876253    -6.4553935      1.1539137      1.3757116      1.6527637      1.0249326      12.62204       12.62204       12.542252    
     86000   0.19145375    -6.7503702      0.2870404     -6.4633298      1.1495812      1.3983473      1.6583789      1.024724       12.62204       12.62204       12.544806    
     86500   0.19462689    -6.754085       0.29179778    -6.4622872      1.2622664      1.4671785      1.4975337      1.0250873      12.62204       12.62204       12.54036     
     87000   0.20072008    -6.7498179      0.30093311    -6.4488848      1.1886558      1.4740676      1.5327391      1.0243711      12.62204       12.62204       12.549127    
     87500   0.19596223    -6.7395146      0.29379981    -6.4457148      1.2653951      1.4609298      1.6713972      1.0246438      12.62204       12.62204       12.545787    
     88000   0.20292098    -6.7629335      0.30423284    -6.4587006      1.1686222      1.3616963      1.5596212      1.0248281      12.62204       12.62204       12.543531    
     88500   0.19453239    -6.752916       0.29165611    -6.4612599      1.2128951      1.3678524      1.6080284      1.0250497      12.62204       12.62204       12.54082     
     89000   0.20012719    -6.7532305      0.30004421    -6.4531863      1.2490787      1.247913       1.3168121      1.0226453      12.62204       12.62204       12.570304    
     89500   0.19562058    -6.7497613      0.29328759    -6.4564738      1.1054909      1.2422551      1.1503041      1.0204059      12.62204       12.62204       12.597892    
     90000   0.19730375    -6.7534235      0.29581112    -6.4576124      1.102502       1.4275482      1.4189019      1.0234644      12.62204       12.62204       12.560244    
     90500   0.20025642    -6.7517229      0.30023796    -6.4514849      1.1014836      1.3879352      1.5523158      1.0237635      12.62204       12.62204       12.556575    
     91000   0.20492015    -6.7479639      0.30723014    -6.4407337      1.2938912      1.429005       1.6248196      1.0249376      12.62204       12.62204       12.542191    
     91500   0.19955908    -6.7531711      0.29919245    -6.4539787      1.2022111      1.3464961      1.4544961      1.0234832      12.62204       12.62204       12.560014    
     92000   0.19448972    -6.7566136      0.29159214    -6.4650215      1.0798633      1.3510693      1.3779797      1.0231156      12.62204       12.62204       12.564526    
     92500   0.19605599    -6.747563       0.29394039    -6.4536226      1.1216524      1.2773076      1.5361828      1.0230447      12.62204       12.62204       12.565397    
     93000   0.20695366    -6.753123       0.31027892    -6.4428441      1.2040438      1.4362747      1.5709773      1.0246065      12.62204       12.62204       12.546244    
     93500   0.20190265    -6.7401054      0.3027061     -6.4373993      1.1858206      1.3794648      1.6382958      1.0236579      12.62204       12.62204       12.55787     
     94000   0.20344114    -6.7442866      0.3050127     -6.4392738      1.152383       1.3506005      1.4790774      1.022644       12.62204       12.62204       12.57032     
     94500   0.20110517    -6.7514481      0.30151046    -6.4499377      1.227858       1.4354004      1.4827788      1.024293       12.62204       12.62204       12.550083    
     95000   0.19404144    -6.7519899      0.29092005    -6.4610698      1.0598963      1.3203226      1.2725779      1.0214432      12.62204       12.62204       12.585099    
     95500   0.18859634    -6.7544546      0.28275639    -6.4716982      1.0712055      1.3482392      1.5447604      1.023413       12.62204       12.62204       12.560876    
     96000   0.19688224    -6.7435124      0.29517916    -6.4483332      1.2193458      1.3356175      1.3805028      1.0222018      12.62204       12.62204       12.575758    
     96500   0.20060598    -6.7499456      0.30076204    -6.4491836      1.2123647      1.3978629      1.4192189      1.0233336      12.62204       12.62204       12.561849    
     97000   0.19926682    -6.7422569      0.29875428    -6.4435027      1.194899       1.4988528      1.6302371      1.0243713      12.62204       12.62204       12.549125    
     97500   0.19957214    -6.7554245      0.29921204    -6.4562125      1.1564905      1.3633527      1.4101877      1.0232416      12.62204       12.62204       12.56298     
     98000   0.19482561    -6.754576       0.29209571    -6.4624803      1.2584119      1.2488642      1.67129        1.0246566      12.62204       12.62204       12.54563     
     98500   0.19245518    -6.7466054      0.28854181    -6.4580636      1.1233591      1.4021911      1.530745       1.0233423      12.62204       12.62204       12.561743    
     99000   0.20139358    -6.7548107      0.30194287    -6.4528678      1.2468602      1.23787        1.5587345      1.0237961      12.62204       12.62204       12.556176    
     99500   0.1985351     -6.745336       0.29765724    -6.4476788      1.0562392      1.4428122      1.42401        1.0224556      12.62204       12.62204       12.572637    
    100000   0.20544321    -6.747959       0.30801434    -6.4399447      1.1493223      1.2779456      1.302691       1.0213911      12.62204       12.62204       12.585741    
    100001   0.20492575    -6.7472047      0.30723853    -6.4399662      1.1587456      1.2817028      1.3027707      1.0214084      12.62204       12.62204       12.585527    
Loop time of 19.5591 on 1 procs for 20000 steps with 2048 atoms

Performance: 441738.209 tau/day, 1022.542 timesteps/s, 2.094 Matom-step/s
108.6% CPU use with 1 MPI tasks x no OpenMP threads

MPI task timing breakdown:
Section |  min time  |  avg time  |  max time  |%varavg| %total
---------------------------------------------------------------
Pair    | 14.557     | 14.557     | 14.557     |   0.0 | 74.43
Neigh   | 3.1572     | 3.1572     | 3.1572     |   0.0 | 16.14
Comm    | 0.29474    | 0.29474    | 0.29474    |   0.0 |  1.51
Output  | 0.25749    | 0.25749    | 0.25749    |   0.0 |  1.32
Modify  | 1.1614     | 1.1614     | 1.1614     |   0.0 |  5.94
Other   |            | 0.1311     |            |       |  0.67

Nlocal:           2048 ave        2048 max        2048 min
Histogram: 1 0 0 0 0 0 0 0 0 0
Nghost:           4100 ave        4100 max        4100 min
Histogram: 1 0 0 0 0 0 0 0 0 0
Neighs:          92067 ave       92067 max       92067 min
Histogram: 1 0 0 0 0 0 0 0 0 0

Total # of neighbors = 92067
Ave neighs/atom = 44.95459
Neighbor list builds = 1154
Dangerous builds = 0
unfix           FNPZZ

undump          DALL
write_data      ${fdata_final}
write_data      o.data.final
System init for write_data ...
Generated 0 of 0 mixed pair_coeff terms from geometric mixing rule

print           "Done."
Done.
Total wall time: 0:01:11
