Binary LJ intro data file

864 atoms

2 atom types

0.0 10.25985568 xlo xhi
0.0 10.25985568 ylo yhi
0.0 10.25985568 zlo zhi

Masses

1 1.0
2 1.0

Atoms # atomic

1 2 0.00000000 0.00000000 0.00000000
2 2 0.85498797 0.85498797 0.00000000
3 1 0.85498797 0.00000000 0.85498797
4 1 0.00000000 0.85498797 0.85498797
5 2 0.00000000 0.00000000 1.70997595
6 2 0.85498797 0.85498797 1.70997595
7 1 0.85498797 0.00000000 2.56496392
8 2 0.00000000 0.85498797 2.56496392
9 1 0.00000000 0.00000000 3.41995189
10 1 0.85498797 0.85498797 3.41995189
11 2 0.85498797 0.00000000 4.27493987
12 1 0.00000000 0.85498797 4.27493987
13 1 0.00000000 0.00000000 5.12992784
14 2 0.85498797 0.85498797 5.12992784
15 2 0.85498797 0.00000000 5.98491581
16 1 0.00000000 0.85498797 5.98491581
17 1 0.00000000 0.00000000 6.83990379
18 2 0.85498797 0.85498797 6.83990379
19 1 0.85498797 0.00000000 7.69489176
20 2 0.00000000 0.85498797 7.69489176
21 2 0.00000000 0.00000000 8.54987973
22 2 0.85498797 0.85498797 8.54987973
23 2 0.85498797 0.00000000 9.40486771
24 2 0.00000000 0.85498797 9.40486771
25 2 0.00000000 1.70997595 0.00000000
26 1 0.85498797 2.56496392 0.00000000
27 2 0.85498797 1.70997595 0.85498797
28 2 0.00000000 2.56496392 0.85498797
29 2 0.00000000 1.70997595 1.70997595
30 1 0.85498797 2.56496392 1.70997595
31 1 0.85498797 1.70997595 2.56496392
32 1 0.00000000 2.56496392 2.56496392
33 1 0.00000000 1.70997595 3.41995189
34 1 0.85498797 2.56496392 3.41995189
35 1 0.85498797 1.70997595 4.27493987
36 1 0.00000000 2.56496392 4.27493987
37 1 0.00000000 1.70997595 5.12992784
38 1 0.85498797 2.56496392 5.12992784
39 2 0.85498797 1.70997595 5.98491581
40 2 0.00000000 2.56496392 5.98491581
41 2 0.00000000 1.70997595 6.83990379
42 1 0.85498797 2.56496392 6.83990379
43 2 0.85498797 1.70997595 7.69489176
44 1 0.00000000 2.56496392 7.69489176
45 2 0.00000000 1.70997595 8.54987973
46 2 0.85498797 2.56496392 8.54987973
47 2 0.85498797 1.70997595 9.40486771
48 2 0.00000000 2.56496392 9.40486771
49 2 0.00000000 3.41995189 0.00000000
50 1 0.85498797 4.27493987 0.00000000
51 2 0.85498797 3.41995189 0.85498797
52 2 0.00000000 4.27493987 0.85498797
53 1 0.00000000 3.41995189 1.70997595
54 2 0.85498797 4.27493987 1.70997595
55 2 0.85498797 3.41995189 2.56496392
56 2 0.00000000 4.27493987 2.56496392
57 2 0.00000000 3.41995189 3.41995189
58 2 0.85498797 4.27493987 3.41995189
59 2 0.85498797 3.41995189 4.27493987
60 2 0.00000000 4.27493987 4.27493987
61 2 0.00000000 3.41995189 5.12992784
62 2 0.85498797 4.27493987 5.12992784
63 2 0.85498797 3.41995189 5.98491581
64 2 0.00000000 4.27493987 5.98491581
65 2 0.00000000 3.41995189 6.83990379
66 2 0.85498797 4.27493987 6.83990379
67 2 0.85498797 3.41995189 7.69489176
68 2 0.00000000 4.27493987 7.69489176
69 1 0.00000000 3.41995189 8.54987973
70 2 0.85498797 4.27493987 8.54987973
71 1 0.85498797 3.41995189 9.40486771
72 2 0.00000000 4.27493987 9.40486771
73 1 0.00000000 5.12992784 0.00000000
74 1 0.85498797 5.98491581 0.00000000
75 2 0.85498797 5.12992784 0.85498797
76 1 0.00000000 5.98491581 0.85498797
77 2 0.00000000 5.12992784 1.70997595
78 2 0.85498797 5.98491581 1.70997595
79 1 0.85498797 5.12992784 2.56496392
80 1 0.00000000 5.98491581 2.56496392
81 1 0.00000000 5.12992784 3.41995189
82 2 0.85498797 5.98491581 3.41995189
83 2 0.85498797 5.12992784 4.27493987
84 1 0.00000000 5.98491581 4.27493987
85 2 0.00000000 5.12992784 5.12992784
86 1 0.85498797 5.98491581 5.12992784
87 2 0.85498797 5.12992784 5.98491581
88 1 0.00000000 5.98491581 5.98491581
89 2 0.00000000 5.12992784 6.83990379
90 2 0.85498797 5.98491581 6.83990379
91 2 0.85498797 5.12992784 7.69489176
92 2 0.00000000 5.98491581 7.69489176
93 1 0.00000000 5.12992784 8.54987973
94 1 0.85498797 5.98491581 8.54987973
95 2 0.85498797 5.12992784 9.40486771
96 2 0.00000000 5.98491581 9.40486771
97 2 0.00000000 6.83990379 0.00000000
98 1 0.85498797 7.69489176 0.00000000
99 2 0.85498797 6.83990379 0.85498797
100 2 0.00000000 7.69489176 0.85498797
101 2 0.00000000 6.83990379 1.70997595
102 2 0.85498797 7.69489176 1.70997595
103 1 0.85498797 6.83990379 2.56496392
104 2 0.00000000 7.69489176 2.56496392
105 1 0.00000000 6.83990379 3.41995189
106 2 0.85498797 7.69489176 3.41995189
107 1 0.85498797 6.83990379 4.27493987
108 2 0.00000000 7.69489176 4.27493987
109 2 0.00000000 6.83990379 5.12992784
110 2 0.85498797 7.69489176 5.12992784
111 2 0.85498797 6.83990379 5.98491581
112 2 0.00000000 7.69489176 5.98491581
113 1 0.00000000 6.83990379 6.83990379
114 1 0.85498797 7.69489176 6.83990379
115 2 0.85498797 6.83990379 7.69489176
116 1 0.00000000 7.69489176 7.69489176
117 2 0.00000000 6.83990379 8.54987973
118 1 0.85498797 7.69489176 8.54987973
119 1 0.85498797 6.83990379 9.40486771
120 2 0.00000000 7.69489176 9.40486771
121 2 0.00000000 8.54987973 0.00000000
122 2 0.85498797 9.40486771 0.00000000
123 2 0.85498797 8.54987973 0.85498797
124 1 0.00000000 9.40486771 0.85498797
125 2 0.00000000 8.54987973 1.70997595
126 2 0.85498797 9.40486771 1.70997595
127 1 0.85498797 8.54987973 2.56496392
128 2 0.00000000 9.40486771 2.56496392
129 2 0.00000000 8.54987973 3.41995189
130 2 0.85498797 9.40486771 3.41995189
131 1 0.85498797 8.54987973 4.27493987
132 1 0.00000000 9.40486771 4.27493987
133 1 0.00000000 8.54987973 5.12992784
134 2 0.85498797 9.40486771 5.12992784
135 1 0.85498797 8.54987973 5.98491581
136 2 0.00000000 9.40486771 5.98491581
137 1 0.00000000 8.54987973 6.83990379
138 1 0.85498797 9.40486771 6.83990379
139 1 0.85498797 8.54987973 7.69489176
140 1 0.00000000 9.40486771 7.69489176
141 2 0.00000000 8.54987973 8.54987973
142 2 0.85498797 9.40486771 8.54987973
143 1 0.85498797 8.54987973 9.40486771
144 1 0.00000000 9.40486771 9.40486771
145 2 1.70997595 0.00000000 0.00000000
146 2 2.56496392 0.85498797 0.00000000
147 1 2.56496392 0.00000000 0.85498797
148 2 1.70997595 0.85498797 0.85498797
149 2 1.70997595 0.00000000 1.70997595
150 1 2.56496392 0.85498797 1.70997595
151 1 2.56496392 0.00000000 2.56496392
152 1 1.70997595 0.85498797 2.56496392
153 2 1.70997595 0.00000000 3.41995189
154 2 2.56496392 0.85498797 3.41995189
155 1 2.56496392 0.00000000 4.27493987
156 2 1.70997595 0.85498797 4.27493987
157 2 1.70997595 0.00000000 5.12992784
158 2 2.56496392 0.85498797 5.12992784
159 2 2.56496392 0.00000000 5.98491581
160 1 1.70997595 0.85498797 5.98491581
161 1 1.70997595 0.00000000 6.83990379
162 1 2.56496392 0.85498797 6.83990379
163 1 2.56496392 0.00000000 7.69489176
164 1 1.70997595 0.85498797 7.69489176
165 1 1.70997595 0.00000000 8.54987973
166 2 2.56496392 0.85498797 8.54987973
167 1 2.56496392 0.00000000 9.40486771
168 1 1.70997595 0.85498797 9.40486771
169 1 1.70997595 1.70997595 0.00000000
170 1 2.56496392 2.56496392 0.00000000
171 1 2.56496392 1.70997595 0.85498797
172 1 1.70997595 2.56496392 0.85498797
173 1 1.70997595 1.70997595 1.70997595
174 1 2.56496392 2.56496392 1.70997595
175 2 2.56496392 1.70997595 2.56496392
176 2 1.70997595 2.56496392 2.56496392
177 2 1.70997595 1.70997595 3.41995189
178 1 2.56496392 2.56496392 3.41995189
179 2 2.56496392 1.70997595 4.27493987
180 1 1.70997595 2.56496392 4.27493987
181 2 1.70997595 1.70997595 5.12992784
182 2 2.56496392 2.56496392 5.12992784
183 2 2.56496392 1.70997595 5.98491581
184 1 1.70997595 2.56496392 5.98491581
185 2 1.70997595 1.70997595 6.83990379
186 2 2.56496392 2.56496392 6.83990379
187 1 2.56496392 1.70997595 7.69489176
188 1 1.70997595 2.56496392 7.69489176
189 2 1.70997595 1.70997595 8.54987973
190 2 2.56496392 2.56496392 8.54987973
191 1 2.56496392 1.70997595 9.40486771
192 2 1.70997595 2.56496392 9.40486771
193 1 1.70997595 3.41995189 0.00000000
194 1 2.56496392 4.27493987 0.00000000
195 2 2.56496392 3.41995189 0.85498797
196 2 1.70997595 4.27493987 0.85498797
197 2 1.70997595 3.41995189 1.70997595
198 2 2.56496392 4.27493987 1.70997595
199 1 2.56496392 3.41995189 2.56496392
200 2 1.70997595 4.27493987 2.56496392
201 1 1.70997595 3.41995189 3.41995189
202 2 2.56496392 4.27493987 3.41995189
203 2 2.56496392 3.41995189 4.27493987
204 2 1.70997595 4.27493987 4.27493987
205 1 1.70997595 3.41995189 5.12992784
206 2 2.56496392 4.27493987 5.12992784
207 2 2.56496392 3.41995189 5.98491581
208 2 1.70997595 4.27493987 5.98491581
209 1 1.70997595 3.41995189 6.83990379
210 1 2.56496392 4.27493987 6.83990379
211 2 2.56496392 3.41995189 7.69489176
212 2 1.70997595 4.27493987 7.69489176
213 2 1.70997595 3.41995189 8.54987973
214 2 2.56496392 4.27493987 8.54987973
215 2 2.56496392 3.41995189 9.40486771
216 2 1.70997595 4.27493987 9.40486771
217 2 1.70997595 5.12992784 0.00000000
218 1 2.56496392 5.98491581 0.00000000
219 1 2.56496392 5.12992784 0.85498797
220 2 1.70997595 5.98491581 0.85498797
221 2 1.70997595 5.12992784 1.70997595
222 2 2.56496392 5.98491581 1.70997595
223 1 2.56496392 5.12992784 2.56496392
224 1 1.70997595 5.98491581 2.56496392
225 1 1.70997595 5.12992784 3.41995189
226 1 2.56496392 5.98491581 3.41995189
227 1 2.56496392 5.12992784 4.27493987
228 1 1.70997595 5.98491581 4.27493987
229 2 1.70997595 5.12992784 5.12992784
230 2 2.56496392 5.98491581 5.12992784
231 2 2.56496392 5.12992784 5.98491581
232 1 1.70997595 5.98491581 5.98491581
233 1 1.70997595 5.12992784 6.83990379
234 2 2.56496392 5.98491581 6.83990379
235 1 2.56496392 5.12992784 7.69489176
236 1 1.70997595 5.98491581 7.69489176
237 2 1.70997595 5.12992784 8.54987973
238 2 2.56496392 5.98491581 8.54987973
239 1 2.56496392 5.12992784 9.40486771
240 1 1.70997595 5.98491581 9.40486771
241 1 1.70997595 6.83990379 0.00000000
242 1 2.56496392 7.69489176 0.00000000
243 1 2.56496392 6.83990379 0.85498797
244 1 1.70997595 7.69489176 0.85498797
245 1 1.70997595 6.83990379 1.70997595
246 2 2.56496392 7.69489176 1.70997595
247 2 2.56496392 6.83990379 2.56496392
248 1 1.70997595 7.69489176 2.56496392
249 2 1.70997595 6.83990379 3.41995189
250 1 2.56496392 7.69489176 3.41995189
251 2 2.56496392 6.83990379 4.27493987
252 2 1.70997595 7.69489176 4.27493987
253 2 1.70997595 6.83990379 5.12992784
254 1 2.56496392 7.69489176 5.12992784
255 2 2.56496392 6.83990379 5.98491581
256 2 1.70997595 7.69489176 5.98491581
257 2 1.70997595 6.83990379 6.83990379
258 1 2.56496392 7.69489176 6.83990379
259 1 2.56496392 6.83990379 7.69489176
260 1 1.70997595 7.69489176 7.69489176
261 2 1.70997595 6.83990379 8.54987973
262 1 2.56496392 7.69489176 8.54987973
263 2 2.56496392 6.83990379 9.40486771
264 1 1.70997595 7.69489176 9.40486771
265 1 1.70997595 8.54987973 0.00000000
266 2 2.56496392 9.40486771 0.00000000
267 1 2.56496392 8.54987973 0.85498797
268 2 1.70997595 9.40486771 0.85498797
269 2 1.70997595 8.54987973 1.70997595
270 1 2.56496392 9.40486771 1.70997595
271 2 2.56496392 8.54987973 2.56496392
272 1 1.70997595 9.40486771 2.56496392
273 2 1.70997595 8.54987973 3.41995189
274 1 2.56496392 9.40486771 3.41995189
275 2 2.56496392 8.54987973 4.27493987
276 2 1.70997595 9.40486771 4.27493987
277 2 1.70997595 8.54987973 5.12992784
278 2 2.56496392 9.40486771 5.12992784
279 2 2.56496392 8.54987973 5.98491581
280 2 1.70997595 9.40486771 5.98491581
281 2 1.70997595 8.54987973 6.83990379
282 1 2.56496392 9.40486771 6.83990379
283 1 2.56496392 8.54987973 7.69489176
284 1 1.70997595 9.40486771 7.69489176
285 1 1.70997595 8.54987973 8.54987973
286 1 2.56496392 9.40486771 8.54987973
287 1 2.56496392 8.54987973 9.40486771
288 2 1.70997595 9.40486771 9.40486771
289 2 3.41995189 0.00000000 0.00000000
290 2 4.27493987 0.85498797 0.00000000
291 1 4.27493987 0.00000000 0.85498797
292 2 3.41995189 0.85498797 0.85498797
293 2 3.41995189 0.00000000 1.70997595
294 1 4.27493987 0.85498797 1.70997595
295 1 4.27493987 0.00000000 2.56496392
296 1 3.41995189 0.85498797 2.56496392
297 2 3.41995189 0.00000000 3.41995189
298 2 4.27493987 0.85498797 3.41995189
299 2 4.27493987 0.00000000 4.27493987
300 1 3.41995189 0.85498797 4.27493987
301 2 3.41995189 0.00000000 5.12992784
302 1 4.27493987 0.85498797 5.12992784
303 2 4.27493987 0.00000000 5.98491581
304 1 3.41995189 0.85498797 5.98491581
305 2 3.41995189 0.00000000 6.83990379
306 2 4.27493987 0.85498797 6.83990379
307 2 4.27493987 0.00000000 7.69489176
308 1 3.41995189 0.85498797 7.69489176
309 1 3.41995189 0.00000000 8.54987973
310 2 4.27493987 0.85498797 8.54987973
311 2 4.27493987 0.00000000 9.40486771
312 1 3.41995189 0.85498797 9.40486771
313 1 3.41995189 1.70997595 0.00000000
314 1 4.27493987 2.56496392 0.00000000
315 1 4.27493987 1.70997595 0.85498797
316 1 3.41995189 2.56496392 0.85498797
317 1 3.41995189 1.70997595 1.70997595
318 2 4.27493987 2.56496392 1.70997595
319 2 4.27493987 1.70997595 2.56496392
320 2 3.41995189 2.56496392 2.56496392
321 2 3.41995189 1.70997595 3.41995189
322 2 4.27493987 2.56496392 3.41995189
323 2 4.27493987 1.70997595 4.27493987
324 2 3.41995189 2.56496392 4.27493987
325 2 3.41995189 1.70997595 5.12992784
326 2 4.27493987 2.56496392 5.12992784
327 1 4.27493987 1.70997595 5.98491581
328 2 3.41995189 2.56496392 5.98491581
329 1 3.41995189 1.70997595 6.83990379
330 2 4.27493987 2.56496392 6.83990379
331 1 4.27493987 1.70997595 7.69489176
332 2 3.41995189 2.56496392 7.69489176
333 1 3.41995189 1.70997595 8.54987973
334 2 4.27493987 2.56496392 8.54987973
335 2 4.27493987 1.70997595 9.40486771
336 2 3.41995189 2.56496392 9.40486771
337 2 3.41995189 3.41995189 0.00000000
338 1 4.27493987 4.27493987 0.00000000
339 2 4.27493987 3.41995189 0.85498797
340 2 3.41995189 4.27493987 0.85498797
341 1 3.41995189 3.41995189 1.70997595
342 2 4.27493987 4.27493987 1.70997595
343 1 4.27493987 3.41995189 2.56496392
344 1 3.41995189 4.27493987 2.56496392
345 2 3.41995189 3.41995189 3.41995189
346 2 4.27493987 4.27493987 3.41995189
347 2 4.27493987 3.41995189 4.27493987
348 1 3.41995189 4.27493987 4.27493987
349 1 3.41995189 3.41995189 5.12992784
350 2 4.27493987 4.27493987 5.12992784
351 1 4.27493987 3.41995189 5.98491581
352 2 3.41995189 4.27493987 5.98491581
353 2 3.41995189 3.41995189 6.83990379
354 2 4.27493987 4.27493987 6.83990379
355 2 4.27493987 3.41995189 7.69489176
356 1 3.41995189 4.27493987 7.69489176
357 2 3.41995189 3.41995189 8.54987973
358 1 4.27493987 4.27493987 8.54987973
359 2 4.27493987 3.41995189 9.40486771
360 1 3.41995189 4.27493987 9.40486771
361 2 3.41995189 5.12992784 0.00000000
362 1 4.27493987 5.98491581 0.00000000
363 1 4.27493987 5.12992784 0.85498797
364 2 3.41995189 5.98491581 0.85498797
365 2 3.41995189 5.12992784 1.70997595
366 2 4.27493987 5.98491581 1.70997595
367 1 4.27493987 5.12992784 2.56496392
368 2 3.41995189 5.98491581 2.56496392
369 1 3.41995189 5.12992784 3.41995189
370 1 4.27493987 5.98491581 3.41995189
371 2 4.27493987 5.12992784 4.27493987
372 1 3.41995189 5.98491581 4.27493987
373 2 3.41995189 5.12992784 5.12992784
374 2 4.27493987 5.98491581 5.12992784
375 1 4.27493987 5.12992784 5.98491581
376 1 3.41995189 5.98491581 5.98491581
377 1 3.41995189 5.12992784 6.83990379
378 2 4.27493987 5.98491581 6.83990379
379 2 4.27493987 5.12992784 7.69489176
380 2 3.41995189 5.98491581 7.69489176
381 2 3.41995189 5.12992784 8.54987973
382 2 4.27493987 5.98491581 8.54987973
383 2 4.27493987 5.12992784 9.40486771
384 1 3.41995189 5.98491581 9.40486771
385 2 3.41995189 6.83990379 0.00000000
386 2 4.27493987 7.69489176 0.00000000
387 1 4.27493987 6.83990379 0.85498797
388 1 3.41995189 7.69489176 0.85498797
389 1 3.41995189 6.83990379 1.70997595
390 2 4.27493987 7.69489176 1.70997595
391 1 4.27493987 6.83990379 2.56496392
392 2 3.41995189 7.69489176 2.56496392
393 2 3.41995189 6.83990379 3.41995189
394 1 4.27493987 7.69489176 3.41995189
395 1 4.27493987 6.83990379 4.27493987
396 2 3.41995189 7.69489176 4.27493987
397 2 3.41995189 6.83990379 5.12992784
398 1 4.27493987 7.69489176 5.12992784
399 2 4.27493987 6.83990379 5.98491581
400 2 3.41995189 7.69489176 5.98491581
401 1 3.41995189 6.83990379 6.83990379
402 1 4.27493987 7.69489176 6.83990379
403 2 4.27493987 6.83990379 7.69489176
404 1 3.41995189 7.69489176 7.69489176
405 2 3.41995189 6.83990379 8.54987973
406 1 4.27493987 7.69489176 8.54987973
407 2 4.27493987 6.83990379 9.40486771
408 1 3.41995189 7.69489176 9.40486771
409 1 3.41995189 8.54987973 0.00000000
410 1 4.27493987 9.40486771 0.00000000
411 2 4.27493987 8.54987973 0.85498797
412 1 3.41995189 9.40486771 0.85498797
413 2 3.41995189 8.54987973 1.70997595
414 2 4.27493987 9.40486771 1.70997595
415 2 4.27493987 8.54987973 2.56496392
416 1 3.41995189 9.40486771 2.56496392
417 2 3.41995189 8.54987973 3.41995189
418 2 4.27493987 9.40486771 3.41995189
419 2 4.27493987 8.54987973 4.27493987
420 2 3.41995189 9.40486771 4.27493987
421 1 3.41995189 8.54987973 5.12992784
422 2 4.27493987 9.40486771 5.12992784
423 2 4.27493987 8.54987973 5.98491581
424 2 3.41995189 9.40486771 5.98491581
425 2 3.41995189 8.54987973 6.83990379
426 1 4.27493987 9.40486771 6.83990379
427 1 4.27493987 8.54987973 7.69489176
428 1 3.41995189 9.40486771 7.69489176
429 1 3.41995189 8.54987973 8.54987973
430 2 4.27493987 9.40486771 8.54987973
431 1 4.27493987 8.54987973 9.40486771
432 2 3.41995189 9.40486771 9.40486771
433 1 5.12992784 0.00000000 0.00000000
434 2 5.98491581 0.85498797 0.00000000
435 1 5.98491581 0.00000000 0.85498797
436 1 5.12992784 0.85498797 0.85498797
437 2 5.12992784 0.00000000 1.70997595
438 2 5.98491581 0.85498797 1.70997595
439 2 5.98491581 0.00000000 2.56496392
440 2 5.12992784 0.85498797 2.56496392
441 1 5.12992784 0.00000000 3.41995189
442 2 5.98491581 0.85498797 3.41995189
443 1 5.98491581 0.00000000 4.27493987
444 2 5.12992784 0.85498797 4.27493987
445 2 5.12992784 0.00000000 5.12992784
446 1 5.98491581 0.85498797 5.12992784
447 1 5.98491581 0.00000000 5.98491581
448 1 5.12992784 0.85498797 5.98491581
449 2 5.12992784 0.00000000 6.83990379
450 1 5.98491581 0.85498797 6.83990379
451 1 5.98491581 0.00000000 7.69489176
452 2 5.12992784 0.85498797 7.69489176
453 2 5.12992784 0.00000000 8.54987973
454 2 5.98491581 0.85498797 8.54987973
455 1 5.98491581 0.00000000 9.40486771
456 2 5.12992784 0.85498797 9.40486771
457 1 5.12992784 1.70997595 0.00000000
458 1 5.98491581 2.56496392 0.00000000
459 2 5.98491581 1.70997595 0.85498797
460 1 5.12992784 2.56496392 0.85498797
461 1 5.12992784 1.70997595 1.70997595
462 1 5.98491581 2.56496392 1.70997595
463 2 5.98491581 1.70997595 2.56496392
464 2 5.12992784 2.56496392 2.56496392
465 1 5.12992784 1.70997595 3.41995189
466 2 5.98491581 2.56496392 3.41995189
467 2 5.98491581 1.70997595 4.27493987
468 2 5.12992784 2.56496392 4.27493987
469 2 5.12992784 1.70997595 5.12992784
470 1 5.98491581 2.56496392 5.12992784
471 1 5.98491581 1.70997595 5.98491581
472 1 5.12992784 2.56496392 5.98491581
473 2 5.12992784 1.70997595 6.83990379
474 1 5.98491581 2.56496392 6.83990379
475 2 5.98491581 1.70997595 7.69489176
476 1 5.12992784 2.56496392 7.69489176
477 1 5.12992784 1.70997595 8.54987973
478 2 5.98491581 2.56496392 8.54987973
479 2 5.98491581 1.70997595 9.40486771
480 2 5.12992784 2.56496392 9.40486771
481 2 5.12992784 3.41995189 0.00000000
482 1 5.98491581 4.27493987 0.00000000
483 1 5.98491581 3.41995189 0.85498797
484 2 5.12992784 4.27493987 0.85498797
485 1 5.12992784 3.41995189 1.70997595
486 2 5.98491581 4.27493987 1.70997595
487 2 5.98491581 3.41995189 2.56496392
488 1 5.12992784 4.27493987 2.56496392
489 1 5.12992784 3.41995189 3.41995189
490 2 5.98491581 4.27493987 3.41995189
491 1 5.98491581 3.41995189 4.27493987
492 2 5.12992784 4.27493987 4.27493987
493 2 5.12992784 3.41995189 5.12992784
494 2 5.98491581 4.27493987 5.12992784
495 1 5.98491581 3.41995189 5.98491581
496 2 5.12992784 4.27493987 5.98491581
497 1 5.12992784 3.41995189 6.83990379
498 2 5.98491581 4.27493987 6.83990379
499 2 5.98491581 3.41995189 7.69489176
500 1 5.12992784 4.27493987 7.69489176
501 1 5.12992784 3.41995189 8.54987973
502 1 5.98491581 4.27493987 8.54987973
503 2 5.98491581 3.41995189 9.40486771
504 2 5.12992784 4.27493987 9.40486771
505 1 5.12992784 5.12992784 0.00000000
506 2 5.98491581 5.98491581 0.00000000
507 1 5.98491581 5.12992784 0.85498797
508 1 5.12992784 5.98491581 0.85498797
509 1 5.12992784 5.12992784 1.70997595
510 2 5.98491581 5.98491581 1.70997595
511 1 5.98491581 5.12992784 2.56496392
512 1 5.12992784 5.98491581 2.56496392
513 1 5.12992784 5.12992784 3.41995189
514 2 5.98491581 5.98491581 3.41995189
515 2 5.98491581 5.12992784 4.27493987
516 1 5.12992784 5.98491581 4.27493987
517 2 5.12992784 5.12992784 5.12992784
518 2 5.98491581 5.98491581 5.12992784
519 2 5.98491581 5.12992784 5.98491581
520 1 5.12992784 5.98491581 5.98491581
521 2 5.12992784 5.12992784 6.83990379
522 2 5.98491581 5.98491581 6.83990379
523 1 5.98491581 5.12992784 7.69489176
524 1 5.12992784 5.98491581 7.69489176
525 2 5.12992784 5.12992784 8.54987973
526 1 5.98491581 5.98491581 8.54987973
527 1 5.98491581 5.12992784 9.40486771
528 2 5.12992784 5.98491581 9.40486771
529 2 5.12992784 6.83990379 0.00000000
530 2 5.98491581 7.69489176 0.00000000
531 2 5.98491581 6.83990379 0.85498797
532 1 5.12992784 7.69489176 0.85498797
533 1 5.12992784 6.83990379 1.70997595
534 1 5.98491581 7.69489176 1.70997595
535 2 5.98491581 6.83990379 2.56496392
536 1 5.12992784 7.69489176 2.56496392
537 2 5.12992784 6.83990379 3.41995189
538 2 5.98491581 7.69489176 3.41995189
539 2 5.98491581 6.83990379 4.27493987
540 1 5.12992784 7.69489176 4.27493987
541 1 5.12992784 6.83990379 5.12992784
542 2 5.98491581 7.69489176 5.12992784
543 2 5.98491581 6.83990379 5.98491581
544 2 5.12992784 7.69489176 5.98491581
545 2 5.12992784 6.83990379 6.83990379
546 2 5.98491581 7.69489176 6.83990379
547 1 5.98491581 6.83990379 7.69489176
548 1 5.12992784 7.69489176 7.69489176
549 2 5.12992784 6.83990379 8.54987973
550 1 5.98491581 7.69489176 8.54987973
551 1 5.98491581 6.83990379 9.40486771
552 2 5.12992784 7.69489176 9.40486771
553 2 5.12992784 8.54987973 0.00000000
554 1 5.98491581 9.40486771 0.00000000
555 2 5.98491581 8.54987973 0.85498797
556 1 5.12992784 9.40486771 0.85498797
557 1 5.12992784 8.54987973 1.70997595
558 2 5.98491581 9.40486771 1.70997595
559 1 5.98491581 8.54987973 2.56496392
560 1 5.12992784 9.40486771 2.56496392
561 2 5.12992784 8.54987973 3.41995189
562 1 5.98491581 9.40486771 3.41995189
563 2 5.98491581 8.54987973 4.27493987
564 2 5.12992784 9.40486771 4.27493987
565 1 5.12992784 8.54987973 5.12992784
566 1 5.98491581 9.40486771 5.12992784
567 2 5.98491581 8.54987973 5.98491581
568 1 5.12992784 9.40486771 5.98491581
569 1 5.12992784 8.54987973 6.83990379
570 2 5.98491581 9.40486771 6.83990379
571 1 5.98491581 8.54987973 7.69489176
572 1 5.12992784 9.40486771 7.69489176
573 2 5.12992784 8.54987973 8.54987973
574 2 5.98491581 9.40486771 8.54987973
575 2 5.98491581 8.54987973 9.40486771
576 2 5.12992784 9.40486771 9.40486771
577 1 6.83990379 0.00000000 0.00000000
578 2 7.69489176 0.85498797 0.00000000
579 1 7.69489176 0.00000000 0.85498797
580 1 6.83990379 0.85498797 0.85498797
581 2 6.83990379 0.00000000 1.70997595
582 2 7.69489176 0.85498797 1.70997595
583 2 7.69489176 0.00000000 2.56496392
584 1 6.83990379 0.85498797 2.56496392
585 1 6.83990379 0.00000000 3.41995189
586 2 7.69489176 0.85498797 3.41995189
587 2 7.69489176 0.00000000 4.27493987
588 2 6.83990379 0.85498797 4.27493987
589 1 6.83990379 0.00000000 5.12992784
590 2 7.69489176 0.85498797 5.12992784
591 2 7.69489176 0.00000000 5.98491581
592 2 6.83990379 0.85498797 5.98491581
593 1 6.83990379 0.00000000 6.83990379
594 2 7.69489176 0.85498797 6.83990379
595 2 7.69489176 0.00000000 7.69489176
596 1 6.83990379 0.85498797 7.69489176
597 2 6.83990379 0.00000000 8.54987973
598 2 7.69489176 0.85498797 8.54987973
599 1 7.69489176 0.00000000 9.40486771
600 2 6.83990379 0.85498797 9.40486771
601 1 6.83990379 1.70997595 0.00000000
602 1 7.69489176 2.56496392 0.00000000
603 1 7.69489176 1.70997595 0.85498797
604 2 6.83990379 2.56496392 0.85498797
605 2 6.83990379 1.70997595 1.70997595
606 1 7.69489176 2.56496392 1.70997595
607 2 7.69489176 1.70997595 2.56496392
608 1 6.83990379 2.56496392 2.56496392
609 2 6.83990379 1.70997595 3.41995189
610 1 7.69489176 2.56496392 3.41995189
611 1 7.69489176 1.70997595 4.27493987
612 1 6.83990379 2.56496392 4.27493987
613 2 6.83990379 1.70997595 5.12992784
614 2 7.69489176 2.56496392 5.12992784
615 1 7.69489176 1.70997595 5.98491581
616 1 6.83990379 2.56496392 5.98491581
617 1 6.83990379 1.70997595 6.83990379
618 2 7.69489176 2.56496392 6.83990379
619 2 7.69489176 1.70997595 7.69489176
620 1 6.83990379 2.56496392 7.69489176
621 1 6.83990379 1.70997595 8.54987973
622 1 7.69489176 2.56496392 8.54987973
623 1 7.69489176 1.70997595 9.40486771
624 1 6.83990379 2.56496392 9.40486771
625 1 6.83990379 3.41995189 0.00000000
626 1 7.69489176 4.27493987 0.00000000
627 2 7.69489176 3.41995189 0.85498797
628 2 6.83990379 4.27493987 0.85498797
629 2 6.83990379 3.41995189 1.70997595
630 1 7.69489176 4.27493987 1.70997595
631 2 7.69489176 3.41995189 2.56496392
632 2 6.83990379 4.27493987 2.56496392
633 2 6.83990379 3.41995189 3.41995189
634 2 7.69489176 4.27493987 3.41995189
635 1 7.69489176 3.41995189 4.27493987
636 1 6.83990379 4.27493987 4.27493987
637 2 6.83990379 3.41995189 5.12992784
638 2 7.69489176 4.27493987 5.12992784
639 1 7.69489176 3.41995189 5.98491581
640 2 6.83990379 4.27493987 5.98491581
641 1 6.83990379 3.41995189 6.83990379
642 2 7.69489176 4.27493987 6.83990379
643 1 7.69489176 3.41995189 7.69489176
644 2 6.83990379 4.27493987 7.69489176
645 1 6.83990379 3.41995189 8.54987973
646 2 7.69489176 4.27493987 8.54987973
647 2 7.69489176 3.41995189 9.40486771
648 1 6.83990379 4.27493987 9.40486771
649 2 6.83990379 5.12992784 0.00000000
650 1 7.69489176 5.98491581 0.00000000
651 2 7.69489176 5.12992784 0.85498797
652 1 6.83990379 5.98491581 0.85498797
653 1 6.83990379 5.12992784 1.70997595
654 1 7.69489176 5.98491581 1.70997595
655 2 7.69489176 5.12992784 2.56496392
656 1 6.83990379 5.98491581 2.56496392
657 2 6.83990379 5.12992784 3.41995189
658 2 7.69489176 5.98491581 3.41995189
659 1 7.69489176 5.12992784 4.27493987
660 1 6.83990379 5.98491581 4.27493987
661 1 6.83990379 5.12992784 5.12992784
662 2 7.69489176 5.98491581 5.12992784
663 2 7.69489176 5.12992784 5.98491581
664 1 6.83990379 5.98491581 5.98491581
665 2 6.83990379 5.12992784 6.83990379
666 2 7.69489176 5.98491581 6.83990379
667 2 7.69489176 5.12992784 7.69489176
668 1 6.83990379 5.98491581 7.69489176
669 1 6.83990379 5.12992784 8.54987973
670 2 7.69489176 5.98491581 8.54987973
671 1 7.69489176 5.12992784 9.40486771
672 1 6.83990379 5.98491581 9.40486771
673 2 6.83990379 6.83990379 0.00000000
674 2 7.69489176 7.69489176 0.00000000
675 2 7.69489176 6.83990379 0.85498797
676 2 6.83990379 7.69489176 0.85498797
677 2 6.83990379 6.83990379 1.70997595
678 1 7.69489176 7.69489176 1.70997595
679 1 7.69489176 6.83990379 2.56496392
680 2 6.83990379 7.69489176 2.56496392
681 2 6.83990379 6.83990379 3.41995189
682 1 7.69489176 7.69489176 3.41995189
683 1 7.69489176 6.83990379 4.27493987
684 1 6.83990379 7.69489176 4.27493987
685 1 6.83990379 6.83990379 5.12992784
686 2 7.69489176 7.69489176 5.12992784
687 1 7.69489176 6.83990379 5.98491581
688 1 6.83990379 7.69489176 5.98491581
689 2 6.83990379 6.83990379 6.83990379
690 2 7.69489176 7.69489176 6.83990379
691 2 7.69489176 6.83990379 7.69489176
692 2 6.83990379 7.69489176 7.69489176
693 2 6.83990379 6.83990379 8.54987973
694 2 7.69489176 7.69489176 8.54987973
695 1 7.69489176 6.83990379 9.40486771
696 1 6.83990379 7.69489176 9.40486771
697 1 6.83990379 8.54987973 0.00000000
698 1 7.69489176 9.40486771 0.00000000
699 1 7.69489176 8.54987973 0.85498797
700 2 6.83990379 9.40486771 0.85498797
701 1 6.83990379 8.54987973 1.70997595
702 1 7.69489176 9.40486771 1.70997595
703 1 7.69489176 8.54987973 2.56496392
704 2 6.83990379 9.40486771 2.56496392
705 1 6.83990379 8.54987973 3.41995189
706 1 7.69489176 9.40486771 3.41995189
707 1 7.69489176 8.54987973 4.27493987
708 2 6.83990379 9.40486771 4.27493987
709 1 6.83990379 8.54987973 5.12992784
710 1 7.69489176 9.40486771 5.12992784
711 2 7.69489176 8.54987973 5.98491581
712 1 6.83990379 9.40486771 5.98491581
713 1 6.83990379 8.54987973 6.83990379
714 1 7.69489176 9.40486771 6.83990379
715 1 7.69489176 8.54987973 7.69489176
716 2 6.83990379 9.40486771 7.69489176
717 1 6.83990379 8.54987973 8.54987973
718 2 7.69489176 9.40486771 8.54987973
719 2 7.69489176 8.54987973 9.40486771
720 2 6.83990379 9.40486771 9.40486771
721 2 8.54987973 0.00000000 0.00000000
722 1 9.40486771 0.85498797 0.00000000
723 1 9.40486771 0.00000000 0.85498797
724 2 8.54987973 0.85498797 0.85498797
725 1 8.54987973 0.00000000 1.70997595
726 1 9.40486771 0.85498797 1.70997595
727 2 9.40486771 0.00000000 2.56496392
728 2 8.54987973 0.85498797 2.56496392
729 2 8.54987973 0.00000000 3.41995189
730 2 9.40486771 0.85498797 3.41995189
731 2 9.40486771 0.00000000 4.27493987
732 2 8.54987973 0.85498797 4.27493987
733 2 8.54987973 0.00000000 5.12992784
734 2 9.40486771 0.85498797 5.12992784
735 1 9.40486771 0.00000000 5.98491581
736 2 8.54987973 0.85498797 5.98491581
737 2 8.54987973 0.00000000 6.83990379
738 2 9.40486771 0.85498797 6.83990379
739 1 9.40486771 0.00000000 7.69489176
740 2 8.54987973 0.85498797 7.69489176
741 1 8.54987973 0.00000000 8.54987973
742 1 9.40486771 0.85498797 8.54987973
743 1 9.40486771 0.00000000 9.40486771
744 1 8.54987973 0.85498797 9.40486771
745 1 8.54987973 1.70997595 0.00000000
746 2 9.40486771 2.56496392 0.00000000
747 1 9.40486771 1.70997595 0.85498797
748 1 8.54987973 2.56496392 0.85498797
749 2 8.54987973 1.70997595 1.70997595
750 1 9.40486771 2.56496392 1.70997595
751 2 9.40486771 1.70997595 2.56496392
752 2 8.54987973 2.56496392 2.56496392
753 1 8.54987973 1.70997595 3.41995189
754 1 9.40486771 2.56496392 3.41995189
755 2 9.40486771 1.70997595 4.27493987
756 2 8.54987973 2.56496392 4.27493987
757 2 8.54987973 1.70997595 5.12992784
758 2 9.40486771 2.56496392 5.12992784
759 2 9.40486771 1.70997595 5.98491581
760 2 8.54987973 2.56496392 5.98491581
761 2 8.54987973 1.70997595 6.83990379
762 1 9.40486771 2.56496392 6.83990379
763 1 9.40486771 1.70997595 7.69489176
764 1 8.54987973 2.56496392 7.69489176
765 1 8.54987973 1.70997595 8.54987973
766 1 9.40486771 2.56496392 8.54987973
767 1 9.40486771 1.70997595 9.40486771