ITEM: TIMESTEP
0
ITEM: NUMBER OF ATOMS
406
ITEM: BOX BOUNDS pp pp pp
0.0000000000000000e+00 1.0259855679999999e+01
0.0000000000000000e+00 1.0259855679999999e+01
0.0000000000000000e+00 1.0259855679999999e+01
ITEM: ATOMS id type x y z
3 1 0.854988 0 0.854988
4 1 0 0.854988 0.854988
7 1 0.854988 0 2.56496
9 1 0 0 3.41995
10 1 0.854988 0.854988 3.41995
12 1 0 0.854988 4.27494
13 1 0 0 5.12993
16 1 0 0.854988 5.98492
17 1 0 0 6.8399
19 1 0.854988 0 7.69489
26 1 0.854988 2.56496 0
30 1 0.854988 2.56496 1.70998
31 1 0.854988 1.70998 2.56496
32 1 0 2.56496 2.56496
33 1 0 1.70998 3.41995
34 1 0.854988 2.56496 3.41995
35 1 0.854988 1.70998 4.27494
36 1 0 2.56496 4.27494
37 1 0 1.70998 5.12993
38 1 0.854988 2.56496 5.12993
42 1 0.854988 2.56496 6.8399
44 1 0 2.56496 7.69489
50 1 0.854988 4.27494 0
53 1 0 3.41995 1.70998
69 1 0 3.41995 8.54988
71 1 0.854988 3.41995 9.40487
73 1 0 5.12993 0
74 1 0.854988 5.98492 0
76 1 0 5.98492 0.854988
79 1 0.854988 5.12993 2.56496
80 1 0 5.98492 2.56496
81 1 0 5.12993 3.41995
84 1 0 5.98492 4.27494
86 1 0.854988 5.98492 5.12993
88 1 0 5.98492 5.98492
93 1 0 5.12993 8.54988
94 1 0.854988 5.98492 8.54988
98 1 0.854988 7.69489 0
103 1 0.854988 6.8399 2.56496
105 1 0 6.8399 3.41995
107 1 0.854988 6.8399 4.27494
113 1 0 6.8399 6.8399
114 1 0.854988 7.69489 6.8399
116 1 0 7.69489 7.69489
118 1 0.854988 7.69489 8.54988
119 1 0.854988 6.8399 9.40487
124 1 0 9.40487 0.854988
127 1 0.854988 8.54988 2.56496
131 1 0.854988 8.54988 4.27494
132 1 0 9.40487 4.27494
133 1 0 8.54988 5.12993
135 1 0.854988 8.54988 5.98492
137 1 0 8.54988 6.8399
138 1 0.854988 9.40487 6.8399
139 1 0.854988 8.54988 7.69489
140 1 0 9.40487 7.69489
143 1 0.854988 8.54988 9.40487
144 1 0 9.40487 9.40487
147 1 2.56496 0 0.854988
150 1 2.56496 0.854988 1.70998
151 1 2.56496 0 2.56496
152 1 1.70998 0.854988 2.56496
155 1 2.56496 0 4.27494
160 1 1.70998 0.854988 5.98492
161 1 1.70998 0 6.8399
162 1 2.56496 0.854988 6.8399
163 1 2.56496 0 7.69489
164 1 1.70998 0.854988 7.69489
165 1 1.70998 0 8.54988
167 1 2.56496 0 9.40487
168 1 1.70998 0.854988 9.40487
169 1 1.70998 1.70998 0
170 1 2.56496 2.56496 0
171 1 2.56496 1.70998 0.854988
172 1 1.70998 2.56496 0.854988
173 1 1.70998 1.70998 1.70998
174 1 2.56496 2.56496 1.70998
178 1 2.56496 2.56496 3.41995
180 1 1.70998 2.56496 4.27494
184 1 1.70998 2.56496 5.98492
187 1 2.56496 1.70998 7.69489
188 1 1.70998 2.56496 7.69489
191 1 2.56496 1.70998 9.40487
193 1 1.70998 3.41995 0
194 1 2.56496 4.27494 0
199 1 2.56496 3.41995 2.56496
201 1 1.70998 3.41995 3.41995
205 1 1.70998 3.41995 5.12993
209 1 1.70998 3.41995 6.8399
210 1 2.56496 4.27494 6.8399
218 1 2.56496 5.98492 0
219 1 2.56496 5.12993 0.854988
223 1 2.56496 5.12993 2.56496
224 1 1.70998 5.98492 2.56496
225 1 1.70998 5.12993 3.41995
226 1 2.56496 5.98492 3.41995
227 1 2.56496 5.12993 4.27494
228 1 1.70998 5.98492 4.27494
232 1 1.70998 5.98492 5.98492
233 1 1.70998 5.12993 6.8399
235 1 2.56496 5.12993 7.69489
236 1 1.70998 5.98492 7.69489
239 1 2.56496 5.12993 9.40487
240 1 1.70998 5.98492 9.40487
241 1 1.70998 6.8399 0
242 1 2.56496 7.69489 0
243 1 2.56496 6.8399 0.854988
244 1 1.70998 7.69489 0.854988
245 1 1.70998 6.8399 1.70998
248 1 1.70998 7.69489 2.56496
250 1 2.56496 7.69489 3.41995
254 1 2.56496 7.69489 5.12993
258 1 2.56496 7.69489 6.8399
259 1 2.56496 6.8399 7.69489
260 1 1.70998 7.69489 7.69489
262 1 2.56496 7.69489 8.54988
264 1 1.70998 7.69489 9.40487
265 1 1.70998 8.54988 0
267 1 2.56496 8.54988 0.854988
270 1 2.56496 9.40487 1.70998
272 1 1.70998 9.40487 2.56496
274 1 2.56496 9.40487 3.41995
282 1 2.56496 9.40487 6.8399
283 1 2.56496 8.54988 7.69489
284 1 1.70998 9.40487 7.69489
285 1 1.70998 8.54988 8.54988
286 1 2.56496 9.40487 8.54988
287 1 2.56496 8.54988 9.40487
291 1 4.27494 0 0.854988
294 1 4.27494 0.854988 1.70998
295 1 4.27494 0 2.56496
296 1 3.41995 0.854988 2.56496
300 1 3.41995 0.854988 4.27494
302 1 4.27494 0.854988 5.12993
304 1 3.41995 0.854988 5.98492
308 1 3.41995 0.854988 7.69489
309 1 3.41995 0 8.54988
312 1 3.41995 0.854988 9.40487
313 1 3.41995 1.70998 0
314 1 4.27494 2.56496 0
315 1 4.27494 1.70998 0.854988
316 1 3.41995 2.56496 0.854988
317 1 3.41995 1.70998 1.70998
327 1 4.27494 1.70998 5.98492
329 1 3.41995 1.70998 6.8399
331 1 4.27494 1.70998 7.69489
333 1 3.41995 1.70998 8.54988
338 1 4.27494 4.27494 0
341 1 3.41995 3.41995 1.70998
343 1 4.27494 3.41995 2.56496
344 1 3.41995 4.27494 2.56496
348 1 3.41995 4.27494 4.27494
349 1 3.41995 3.41995 5.12993
351 1 4.27494 3.41995 5.98492
356 1 3.41995 4.27494 7.69489
358 1 4.27494 4.27494 8.54988
360 1 3.41995 4.27494 9.40487
362 1 4.27494 5.98492 0
363 1 4.27494 5.12993 0.854988
367 1 4.27494 5.12993 2.56496
369 1 3.41995 5.12993 3.41995
370 1 4.27494 5.98492 3.41995
372 1 3.41995 5.98492 4.27494
375 1 4.27494 5.12993 5.98492
376 1 3.41995 5.98492 5.98492
377 1 3.41995 5.12993 6.8399
384 1 3.41995 5.98492 9.40487
387 1 4.27494 6.8399 0.854988
388 1 3.41995 7.69489 0.854988
389 1 3.41995 6.8399 1.70998
391 1 4.27494 6.8399 2.56496
394 1 4.27494 7.69489 3.41995
395 1 4.27494 6.8399 4.27494
398 1 4.27494 7.69489 5.12993
401 1 3.41995 6.8399 6.8399
402 1 4.27494 7.69489 6.8399
404 1 3.41995 7.69489 7.69489
406 1 4.27494 7.69489 8.54988
408 1 3.41995 7.69489 9.40487
409 1 3.41995 8.54988 0
410 1 4.27494 9.40487 0
412 1 3.41995 9.40487 0.854988
416 1 3.41995 9.40487 2.56496
421 1 3.41995 8.54988 5.12993
426 1 4.27494 9.40487 6.8399
427 1 4.27494 8.54988 7.69489
428 1 3.41995 9.40487 7.69489
429 1 3.41995 8.54988 8.54988
431 1 4.27494 8.54988 9.40487
433 1 5.12993 0 0
435 1 5.98492 0 0.854988
436 1 5.12993 0.854988 0.854988
441 1 5.12993 0 3.41995
443 1 5.98492 0 4.27494
446 1 5.98492 0.854988 5.12993
447 1 5.98492 0 5.98492
448 1 5.12993 0.854988 5.98492
450 1 5.98492 0.854988 6.8399
451 1 5.98492 0 7.69489
455 1 5.98492 0 9.40487
457 1 5.12993 1.70998 0
458 1 5.98492 2.56496 0
460 1 5.12993 2.56496 0.854988
461 1 5.12993 1.70998 1.70998
462 1 5.98492 2.56496 1.70998
465 1 5.12993 1.70998 3.41995
470 1 5.98492 2.56496 5.12993
471 1 5.98492 1.70998 5.98492
472 1 5.12993 2.56496 5.98492
474 1 5.98492 2.56496 6.8399
476 1 5.12993 2.56496 7.69489
477 1 5.12993 1.70998 8.54988
482 1 5.98492 4.27494 0
483 1 5.98492 3.41995 0.854988
485 1 5.12993 3.41995 1.70998
488 1 5.12993 4.27494 2.56496
489 1 5.12993 3.41995 3.41995
491 1 5.98492 3.41995 4.27494
495 1 5.98492 3.41995 5.98492
497 1 5.12993 3.41995 6.8399
500 1 5.12993 4.27494 7.69489
501 1 5.12993 3.41995 8.54988
502 1 5.98492 4.27494 8.54988
505 1 5.12993 5.12993 0
507 1 5.98492 5.12993 0.854988
508 1 5.12993 5.98492 0.854988
509 1 5.12993 5.12993 1.70998
511 1 5.98492 5.12993 2.56496
512 1 5.12993 5.98492 2.56496
513 1 5.12993 5.12993 3.41995
516 1 5.12993 5.98492 4.27494
520 1 5.12993 5.98492 5.98492
523 1 5.98492 5.12993 7.69489
524 1 5.12993 5.98492 7.69489
526 1 5.98492 5.98492 8.54988
527 1 5.98492 5.12993 9.40487
532 1 5.12993 7.69489 0.854988
533 1 5.12993 6.8399 1.70998
534 1 5.98492 7.69489 1.70998
536 1 5.12993 7.69489 2.56496
540 1 5.12993 7.69489 4.27494
541 1 5.12993 6.8399 5.12993
547 1 5.98492 6.8399 7.69489
548 1 5.12993 7.69489 7.69489
550 1 5.98492 7.69489 8.54988
551 1 5.98492 6.8399 9.40487
554 1 5.98492 9.40487 0
556 1 5.12993 9.40487 0.854988
557 1 5.12993 8.54988 1.70998
559 1 5.98492 8.54988 2.56496
560 1 5.12993 9.40487 2.56496
562 1 5.98492 9.40487 3.41995
565 1 5.12993 8.54988 5.12993
566 1 5.98492 9.40487 5.12993
568 1 5.12993 9.40487 5.98492
569 1 5.12993 8.54988 6.8399
571 1 5.98492 8.54988 7.69489
572 1 5.12993 9.40487 7.69489
577 1 6.8399 0 0
579 1 7.69489 0 0.854988
580 1 6.8399 0.854988 0.854988
584 1 6.8399 0.854988 2.56496
585 1 6.8399 0 3.41995
589 1 6.8399 0 5.12993
593 1 6.8399 0 6.8399
596 1 6.8399 0.854988 7.69489
599 1 7.69489 0 9.40487
601 1 6.8399 1.70998 0
602 1 7.69489 2.56496 0
603 1 7.69489 1.70998 0.854988
606 1 7.69489 2.56496 1.70998
608 1 6.8399 2.56496 2.56496
610 1 7.69489 2.56496 3.41995
611 1 7.69489 1.70998 4.27494
612 1 6.8399 2.56496 4.27494
615 1 7.69489 1.70998 5.98492
616 1 6.8399 2.56496 5.98492
617 1 6.8399 1.70998 6.8399
620 1 6.8399 2.56496 7.69489
621 1 6.8399 1.70998 8.54988
622 1 7.69489 2.56496 8.54988
623 1 7.69489 1.70998 9.40487
624 1 6.8399 2.56496 9.40487
625 1 6.8399 3.41995 0
626 1 7.69489 4.27494 0
630 1 7.69489 4.27494 1.70998
635 1 7.69489 3.41995 4.27494
636 1 6.8399 4.27494 4.27494
639 1 7.69489 3.41995 5.98492
641 1 6.8399 3.41995 6.8399
643 1 7.69489 3.41995 7.69489
645 1 6.8399 3.41995 8.54988
648 1 6.8399 4.27494 9.40487
650 1 7.69489 5.98492 0
652 1 6.8399 5.98492 0.854988
653 1 6.8399 5.12993 1.70998
654 1 7.69489 5.98492 1.70998
656 1 6.8399 5.98492 2.56496
659 1 7.69489 5.12993 4.27494
660 1 6.8399 5.98492 4.27494
661 1 6.8399 5.12993 5.12993
664 1 6.8399 5.98492 5.98492
668 1 6.8399 5.98492 7.69489
669 1 6.8399 5.12993 8.54988
671 1 7.69489 5.12993 9.40487
672 1 6.8399 5.98492 9.40487
678 1 7.69489 7.69489 1.70998
679 1 7.69489 6.8399 2.56496
682 1 7.69489 7.69489 3.41995
683 1 7.69489 6.8399 4.27494
684 1 6.8399 7.69489 4.27494
685 1 6.8399 6.8399 5.12993
687 1 7.69489 6.8399 5.98492
688 1 6.8399 7.69489 5.98492
695 1 7.69489 6.8399 9.40487
696 1 6.8399 7.69489 9.40487
697 1 6.8399 8.54988 0
698 1 7.69489 9.40487 0
699 1 7.69489 8.54988 0.854988
701 1 6.8399 8.54988 1.70998
702 1 7.69489 9.40487 1.70998
703 1 7.69489 8.54988 2.56496
705 1 6.8399 8.54988 3.41995
706 1 7.69489 9.40487 3.41995
707 1 7.69489 8.54988 4.27494
709 1 6.8399 8.54988 5.12993
710 1 7.69489 9.40487 5.12993
712 1 6.8399 9.40487 5.98492
713 1 6.8399 8.54988 6.8399
714 1 7.69489 9.40487 6.8399
715 1 7.69489 8.54988 7.69489
717 1 6.8399 8.54988 8.54988
722 1 9.40487 0.854988 0
723 1 9.40487 0 0.854988
725 1 8.54988 0 1.70998
726 1 9.40487 0.854988 1.70998
735 1 9.40487 0 5.98492
739 1 9.40487 0 7.69489
741 1 8.54988 0 8.54988
742 1 9.40487 0.854988 8.54988
743 1 9.40487 0 9.40487
744 1 8.54988 0.854988 9.40487
745 1 8.54988 1.70998 0
747 1 9.40487 1.70998 0.854988
748 1 8.54988 2.56496 0.854988
750 1 9.40487 2.56496 1.70998
753 1 8.54988 1.70998 3.41995
754 1 9.40487 2.56496 3.41995
762 1 9.40487 2.56496 6.8399
763 1 9.40487 1.70998 7.69489
764 1 8.54988 2.56496 7.69489
765 1 8.54988 1.70998 8.54988
766 1 9.40487 2.56496 8.54988
767 1 9.40487 1.70998 9.40487
769 1 8.54988 3.41995 0
771 1 9.40487 3.41995 0.854988
772 1 8.54988 4.27494 0.854988
773 1 8.54988 3.41995 1.70998
774 1 9.40487 4.27494 1.70998
776 1 8.54988 4.27494 2.56496
777 1 8.54988 3.41995 3.41995
778 1 9.40487 4.27494 3.41995
781 1 8.54988 3.41995 5.12993
783 1 9.40487 3.41995 5.98492
785 1 8.54988 3.41995 6.8399
788 1 8.54988 4.27494 7.69489
791 1 9.40487 3.41995 9.40487
794 1 9.40487 5.98492 0
796 1 8.54988 5.98492 0.854988
798 1 9.40487 5.98492 1.70998
801 1 8.54988 5.12993 3.41995
802 1 9.40487 5.98492 3.41995
803 1 9.40487 5.12993 4.27494
808 1 8.54988 5.98492 5.98492
811 1 9.40487 5.12993 7.69489
812 1 8.54988 5.98492 7.69489
813 1 8.54988 5.12993 8.54988
814 1 9.40487 5.98492 8.54988
815 1 9.40487 5.12993 9.40487
816 1 8.54988 5.98492 9.40487
819 1 9.40487 6.8399 0.854988
821 1 8.54988 6.8399 1.70998
823 1 9.40487 6.8399 2.56496
825 1 8.54988 6.8399 3.41995
827 1 9.40487 6.8399 4.27494
828 1 8.54988 7.69489 4.27494
834 1 9.40487 7.69489 6.8399
836 1 8.54988 7.69489 7.69489
840 1 8.54988 7.69489 9.40487
841 1 8.54988 8.54988 0
844 1 8.54988 9.40487 0.854988
845 1 8.54988 8.54988 1.70998
846 1 9.40487 9.40487 1.70998
847 1 9.40487 8.54988 2.56496
849 1 8.54988 8.54988 3.41995
850 1 9.40487 9.40487 3.41995
851 1 9.40487 8.54988 4.27494
852 1 8.54988 9.40487 4.27494
854 1 9.40487 9.40487 5.12993
856 1 8.54988 9.40487 5.98492
857 1 8.54988 8.54988 6.8399
858 1 9.40487 9.40487 6.8399
860 1 8.54988 9.40487 7.69489
861 1 8.54988 8.54988 8.54988
862 1 9.40487 9.40487 8.54988
863 1 9.40487 8.54988 9.40487
ITEM: TIMESTEP
1
ITEM: NUMBER OF ATOMS
406
ITEM: BOX BOUNDS pp pp pp
0.0000000000000000e+00 1.0259855679999999e+01
0.0000000000000000e+00 1.0259855679999999e+01
0.0000000000000000e+00 1.0259855679999999e+01
ITEM: ATOMS id type x y z
3 1 0.854069 -0.000451507 0.851116
4 1 -0.00241298 0.853268 0.856946
7 1 0.853898 0.00320369 2.56087
9 1 -0.0032323 -0.00281655 3.42907
10 1 0.856559 0.854786 3.43243
12 1 -0.00441163 0.855382 4.26944
13 1 0.000720234 -0.00336027 5.13236
16 1 0.000832267 0.853821 5.97905
17 1 -0.0034846 -0.00384427 6.83594
19 1 0.847357 -0.00383155 7.70342
26 1 0.865901 2.56206 0.00104439
30 1 0.846273 2.56934 1.70643
31 1 0.854958 1.70754 2.56831
32 1 0.00470772 2.5714 2.55969
33 1 0.00168411 1.71347 3.41856
34 1 0.85695 2.56449 3.42499
35 1 0.849753 1.70468 4.27716
36 1 0.00589464 2.56519 4.27979
37 1 0.00341117 1.71084 5.12887
38 1 0.856575 2.56864 5.13548
42 1 0.866142 2.56083 6.83729
44 1 0.0059283 2.5546 7.69612
50 1 0.857245 4.27384 0.00458012
53 1 -0.0052866 3.4157 1.71076
69 1 -0.00650477 3.42827 8.5469
71 1 0.853697 3.42823 9.40311
73 1 -0.00407663 5.12635 0.00939726
74 1 0.856572 5.98518 0.00587826
76 1 -0.00401142 5.98574 0.853368
79 1 0.859002 5.12459 2.55632
80 1 -0.0038614 5.99283 2.56349
81 1 -0.00297574 5.13761 3.41891
84 1 -0.00244833 5.98868 4.27774
86 1 0.86208 5.99499 5.12773
88 1 0.00282509 5.97929 5.97908
93 1 0.000653078 5.13288 8.55073
94 1 0.850233 5.99125 8.54515
98 1 0.854761 7.68627 0.0095183
103 1 0.860033 6.83164 2.565
105 1 -0.00518539 6.84344 3.41169
107 1 0.849832 6.83069 4.27499
113 1 -0.000472167 6.84593 6.83551
114 1 0.863137 7.69692 6.84278
116 1 -0.00278853 7.68888 7.68813
118 1 0.853524 7.69535 8.55147
119 1 0.855023 6.83557 9.40137
124 1 -0.00826086 9.4042 0.852048
127 1 0.849472 8.55165 2.56492
131 1 0.84547 8.54421 4.27333
132 1 -0.00290965 9.3948 4.27126
133 1 0.00317267 8.54703 5.13183
135 1 0.859216 8.54763 5.9901
137 1 -0.00392411 8.54663 6.84067
138 1 0.857401 9.40636 6.84075
139 1 0.854684 8.54549 7.69721
140 1 -0.00102968 9.39856 7.69798
143 1 0.850603 8.55512 9.41041
144 1 -0.0112564 9.40522 9.40791
147 1 2.55882 0.000523727 0.852426
150 1 2.56291 0.858565 1.71675
151 1 2.57009 0.00172257 2.56725
152 1 1.70272 0.856519 2.5619
155 1 2.56079 0.00611439 4.27064
160 1 1.71315 0.857306 5.98535
161 1 1.71806 0.00299148 6.84022
162 1 2.56769 0.863782 6.84504
163 1 2.56514 -0.000413423 7.69452
164 1 1.72775 0.854059 7.70186
165 1 1.71247 0.00153255 8.55316
167 1 2.55863 0.00184206 9.40064
168 1 1.70505 0.849818 9.40505
169 1 1.71588 1.70078 0.00282741
170 1 2.56173 2.56773 -0.00776001
171 1 2.55953 1.71017 0.85356
172 1 1.69645 2.56209 0.854623
173 1 1.71667 1.7073 1.70687
174 1 2.56417 2.56213 1.70425
178 1 2.5635 2.56117 3.4232
180 1 1.70429 2.56363 4.26571
184 1 1.71744 2.56995 5.98792
187 1 2.56113 1.71595 7.70065
188 1 1.71514 2.56328 7.70084
191 1 2.57091 1.71135 9.40503
193 1 1.71149 3.42286 0.00207267
194 1 2.57218 4.26952 -0.00086617
199 1 2.56876 3.41728 2.56418
201 1 1.7121 3.42474 3.41696
205 1 1.71417 3.42759 5.13253
209 1 1.70963 3.41218 6.84296
210 1 2.57041 4.28113 6.83565
218 1 2.57401 5.98481 -0.00136138
219 1 2.55941 5.12886 0.853236
223 1 2.56801 5.13231 2.56305
224 1 1.69562 5.9768 2.5733
225 1 1.70436 5.12533 3.42161
226 1 2.56584 5.98634 3.41353
227 1 2.56265 5.12701 4.27088
228 1 1.70511 5.97382 4.26826
232 1 1.71219 5.99046 5.98704
233 1 1.70766 5.12894 6.83651
235 1 2.56332 5.12881 7.68668
236 1 1.72162 5.98411 7.69459
239 1 2.56743 5.1225 9.41018
240 1 1.7055 5.97697 9.39728
241 1 1.70198 6.84674 0.00129043
242 1 2.55906 7.69163 0.00373707
243 1 2.56484 6.83719 0.860431
244 1 1.70736 7.68052 0.852154
245 1 1.71186 6.84026 1.70456
248 1 1.70436 7.69777 2.55823
250 1 2.57183 7.69391 3.4268
254 1 2.56639 7.69524 5.12286
258 1 2.55957 7.68928 6.83784
259 1 2.56664 6.84238 7.69285
260 1 1.70068 7.6869 7.69055
262 1 2.56519 7.69068 8.5572
264 1 1.70527 7.69521 9.40822
265 1 1.71597 8.55213 -0.00412643
267 1 2.56095 8.53099 0.849023
270 1 2.55804 9.39439 1.7073
272 1 1.70925 9.41252 2.55399
274 1 2.56592 9.40229 3.42423
282 1 2.56666 9.40579 6.84468
283 1 2.56419 8.54928 7.69674
284 1 1.71473 9.41111 7.69546
285 1 1.7083 8.54849 8.54631
286 1 2.56259 9.39467 8.53966
287 1 2.57034 8.54827 9.41088
291 1 4.27279 -0.0112317 0.851239
294 1 4.27717 0.849898 1.70176
295 1 4.27845 0.00308447 2.57008
296 1 3.42097 0.849746 2.56672
300 1 3.4244 0.859326 4.27853
302 1 4.26864 0.856115 5.14024
304 1 3.4185 0.855225 5.97649
308 1 3.41987 0.847928 7.68946
309 1 3.42039 0.00206618 8.55632
312 1 3.4196 0.84643 9.40554
313 1 3.42361 1.71125 -0.002263
314 1 4.27582 2.56658 0.00192867
315 1 4.27177 1.72273 0.859448
316 1 3.41678 2.56778 0.855569
317 1 3.42452 1.70521 1.70179
327 1 4.27144 1.71594 5.98288
329 1 3.41724 1.71024 6.83334
331 1 4.27667 1.71269 7.69168
333 1 3.41941 1.71239 8.55794
338 1 4.28353 4.27681 -0.00380954
341 1 3.41307 3.40951 1.70965
343 1 4.27749 3.42479 2.56372
344 1 3.41693 4.27927 2.57116
348 1 3.42224 4.27423 4.27262
349 1 3.42099 3.41737 5.12562
351 1 4.26775 3.41286 5.98106
356 1 3.42602 4.27598 7.68973
358 1 4.27543 4.28035 8.55684
360 1 3.42577 4.27805 9.40302
362 1 4.27618 5.98151 -0.0021848
363 1 4.27916 5.12557 0.858648
367 1 4.27441 5.13134 2.56719
369 1 3.41093 5.12987 3.41815
370 1 4.27159 5.99352 3.41714
372 1 3.42037 5.98533 4.2657
375 1 4.27563 5.1282 5.99344
376 1 3.42659 5.99072 5.98585
377 1 3.4243 5.13586 6.85087
384 1 3.42341 5.98525 9.41146
387 1 4.28097 6.84215 0.850571
388 1 3.42238 7.69903 0.854842
389 1 3.4231 6.84054 1.70284
391 1 4.27851 6.84278 2.57322
394 1 4.27553 7.69448 3.42548
395 1 4.28044 6.83494 4.28697
398 1 4.2773 7.68907 5.129
401 1 3.41825 6.83825 6.83722
402 1 4.26963 7.69654 6.84023
404 1 3.41202 7.69063 7.70026
406 1 4.27664 7.69485 8.5489
408 1 3.41832 7.68312 9.40955
409 1 3.41516 8.55562 -0.0067652
410 1 4.26976 9.41036 0.000186917
412 1 3.41889 9.40678 0.851196
416 1 3.42792 9.40376 2.57198
421 1 3.41758 8.55107 5.12965
426 1 4.27602 9.40847 6.84036
427 1 4.2719 8.54997 7.69797
428 1 3.41444 9.40732 7.69256
429 1 3.42239 8.562 8.55021
431 1 4.27412 8.55609 9.40552
433 1 5.13112 0.00439024 -0.0068024
435 1 5.98113 0.00770585 0.847671
436 1 5.12969 0.84804 0.852117
441 1 5.13929 -0.00429071 3.42594
443 1 5.98277 0.000311441 4.282
446 1 5.98701 0.851572 5.13392
447 1 5.99041 0.00251578 5.98636
448 1 5.13272 0.858333 5.98106
450 1 5.99511 0.860548 6.84043
451 1 5.98161 -0.000899115 7.6962
455 1 5.98215 0.000251009 9.39785
457 1 5.1346 1.70458 -0.00586705
458 1 5.9893 2.56637 -0.00940755
460 1 5.12692 2.56037 0.857481
461 1 5.11495 1.70888 1.71131
462 1 5.98526 2.56684 1.71475
465 1 5.12417 1.71148 3.41913
470 1 5.97933 2.57069 5.13267
471 1 5.99003 1.71333 5.9839
472 1 5.1362 2.56536 5.98665
474 1 5.98752 2.56343 6.83627
476 1 5.1374 2.56421 7.69205
477 1 5.1312 1.70817 8.55742
482 1 5.98605 4.26838 -0.00362956
483 1 5.99367 3.41702 0.85664
485 1 5.13265 3.42117 1.70646
488 1 5.12594 4.27445 2.56467
489 1 5.13018 3.41884 3.42361
491 1 5.98489 3.42342 4.27112
495 1 5.98497 3.42311 5.99136
497 1 5.13436 3.41741 6.84357
500 1 5.1231 4.27786 7.69576
501 1 5.12387 3.42009 8.54415
502 1 5.98257 4.27644 8.54659
505 1 5.13051 5.13882 0.00552953
507 1 5.98391 5.12162 0.851644
508 1 5.13665 5.98685 0.849032
509 1 5.12791 5.12357 1.70586
511 1 5.99499 5.11765 2.56763
512 1 5.13261 5.982 2.56809
513 1 5.12667 5.12772 3.42178
516 1 5.13549 5.99012 4.27967
520 1 5.13599 5.97849 5.97323
523 1 5.98385 5.12828 7.69103
524 1 5.13797 5.98436 7.70162
526 1 5.98664 5.98797 8.55039
527 1 5.99376 5.1293 9.40582
532 1 5.12815 7.69974 0.857596
533 1 5.129 6.83771 1.70509
534 1 5.97559 7.69851 1.70586
536 1 5.12802 7.69128 2.5712
540 1 5.13807 7.69722 4.27912
541 1 5.13588 6.83979 5.1281
547 1 5.98159 6.83575 7.69925
548 1 5.12885 7.70648 7.69815
550 1 5.98072 7.70023 8.54415
551 1 5.98181 6.84523 9.39994
554 1 5.97933 9.40164 0.00137446
556 1 5.12959 9.39963 0.849192
557 1 5.1332 8.55035 1.71718
559 1 5.98216 8.55025 2.56099
560 1 5.12277 9.40722 2.56406
562 1 5.98618 9.40811 3.4137
565 1 5.13055 8.55022 5.13106
566 1 5.98527 9.4061 5.1238
568 1 5.13583 9.41232 5.98259
569 1 5.1342 8.55755 6.85064
571 1 5.98725 8.54229 7.6975
572 1 5.13834 9.40571 7.68434
577 1 6.84254 -0.000385968 0.00457597
579 1 7.69938 0.00212748 0.847264
580 1 6.83524 0.84646 0.852548
584 1 6.8463 0.858078 2.56636
585 1 6.84679 0.00227687 3.4161
589 1 6.83987 -0.0027012 5.12807
593 1 6.84078 -0.0038873 6.8417
596 1 6.83555 0.859597 7.68561
599 1 7.694 0.00461386 9.41972
601 1 6.83925 1.71355 0.00631034
602 1 7.69716 2.55938 -0.00993327
603 1 7.69423 1.71566 0.845776
606 1 7.70018 2.56845 1.70686
608 1 6.8354 2.56907 2.56281
610 1 7.69257 2.56056 3.41818
611 1 7.70148 1.71225 4.27741
612 1 6.84529 2.57239 4.28179
615 1 7.69198 1.70639 5.98332
616 1 6.84204 2.55959 5.97951
617 1 6.8325 1.70377 6.84093
620 1 6.84338 2.56733 7.68575
621 1 6.83602 1.69523 8.55823
622 1 7.68966 2.57103 8.54835
623 1 7.69118 1.71269 9.39628
624 1 6.83243 2.56462 9.39636
625 1 6.83776 3.42283 -0.0017951
626 1 7.68578 4.27882 -0.00542732
630 1 7.6933 4.27825 1.71337
635 1 7.69342 3.41681 4.28217
636 1 6.84657 4.27705 4.2773
639 1 7.69091 3.41107 5.9911
641 1 6.83982 3.42428 6.8361
643 1 7.69499 3.42018 7.69232
645 1 6.83542 3.41841 8.55146
648 1 6.83804 4.27236 9.40337
650 1 7.69909 5.98682 -0.00690398
652 1 6.83079 5.9838 0.854535
653 1 6.83671 5.13671 1.70768
654 1 7.68832 5.98553 1.70513
656 1 6.83929 5.97445 2.56066
659 1 7.70219 5.12389 4.27548
660 1 6.84121 5.98388 4.27197
661 1 6.84218 5.12527 5.13477
664 1 6.84068 5.98264 5.97952
668 1 6.8321 5.98024 7.69764
669 1 6.84284 5.11869 8.55304
671 1 7.69377 5.13517 9.40706
672 1 6.84344 5.98009 9.40426
678 1 7.69959 7.7009 1.71083
679 1 7.69624 6.84261 2.57158
682 1 7.69267 7.69407 3.42049
683 1 7.69229 6.8387 4.27648
684 1 6.83606 7.69452 4.27116
685 1 6.84368 6.84038 5.13463
687 1 7.70016 6.8364 5.97969
688 1 6.84703 7.69228 5.98402
695 1 7.70414 6.83387 9.40344
696 1 6.83444 7.69729 9.40503
697 1 6.83797 8.55124 0.0114469
698 1 7.69734 9.41074 0.00936272
699 1 7.70015 8.54576 0.859491
701 1 6.831 8.55818 1.705
702 1 7.69989 9.41979 1.72047
703 1 7.70033 8.54825 2.57558
705 1 6.8436 8.55148 3.41679
706 1 7.69952 9.41002 3.41775
707 1 7.69136 8.55679 4.27835
709 1 6.84306 8.54186 5.1257
710 1 7.69474 9.39951 5.1301
712 1 6.8448 9.41357 5.98784
713 1 6.8392 8.54631 6.84063
714 1 7.7014 9.3981 6.83764
715 1 7.69654 8.55182 7.70075
717 1 6.84205 8.55633 8.54514
722 1 9.40215 0.857186 -0.00130063
723 1 9.40448 0.00456908 0.860916
725 1 8.54957 0.000597748 1.70462
726 1 9.40861 0.857329 1.70613
735 1 9.40152 0.00269165 5.98697
739 1 9.40603 -0.000408822 7.6916
741 1 8.54404 -0.009095 8.5606
742 1 9.40093 0.864201 8.54014
743 1 9.40371 -0.00366202 9.41253
744 1 8.55236 0.857789 9.40552
745 1 8.5398 1.70726 0.00599728
747 1 9.40998 1.71161 0.860593
748 1 8.55072 2.56112 0.864298
750 1 9.40272 2.56872 1.71392
753 1 8.54988 1.71332 3.42148
754 1 9.40736 2.57366 3.4242
762 1 9.40192 2.56196 6.84126
763 1 9.40291 1.70915 7.69259
764 1 8.55439 2.566 7.69433
765 1 8.55353 1.70298 8.54814
766 1 9.39714 2.56003 8.54776
767 1 9.41496 1.71361 9.40407
769 1 8.54774 3.41724 0.00483408
771 1 9.40711 3.41492 0.853747
772 1 8.55313 4.27673 0.87012
773 1 8.53586 3.42793 1.70813
774 1 9.40972 4.27279 1.70943
776 1 8.55169 4.27742 2.57082
777 1 8.53977 3.42247 3.42527
778 1 9.40145 4.27411 3.41675
781 1 8.55834 3.41457 5.13524
783 1 9.40163 3.41138 5.98521
785 1 8.54936 3.43015 6.84544
788 1 8.54855 4.2748 7.68996
791 1 9.40686 3.41458 9.40697
794 1 9.40653 5.98667 0.0036782
796 1 8.54466 5.97843 0.857424
798 1 9.40564 5.97644 1.71211
801 1 8.55018 5.1275 3.42846
802 1 9.41241 5.98565 3.41419
803 1 9.4072 5.13714 4.27914
808 1 8.55611 5.9867 5.98693
811 1 9.40596 5.13715 7.69951
812 1 8.55353 5.98177 7.69487
813 1 8.542 5.12788 8.55078
814 1 9.40258 5.98098 8.55569
815 1 9.40746 5.13089 9.41043
816 1 8.54338 5.98796 9.39317
819 1 9.39771 6.83541 0.85713
821 1 8.54518 6.84589 1.71503
823 1 9.4009 6.83747 2.57287
825 1 8.55378 6.83841 3.41101
827 1 9.41361 6.84643 4.26795
828 1 8.55878 7.69178 4.28032
834 1 9.40363 7.69831 6.84187
836 1 8.55108 7.68974 7.69556
840 1 8.54802 7.68416 9.40582
841 1 8.55514 8.54947 -0.00476861
844 1 8.54313 9.40907 0.846996
845 1 8.556 8.54145 1.71182
846 1 9.39829 9.41173 1.70973
847 1 9.41076 8.54544 2.56895
849 1 8.55623 8.54579 3.40811
850 1 9.40211 9.40663 3.42665
851 1 9.40403 8.55564 4.28132
852 1 8.54992 9.40532 4.27538
854 1 9.40944 9.40651 5.13431
856 1 8.55507 9.40571 5.98429
857 1 8.54963 8.54788 6.84718
858 1 9.40754 9.41302 6.84093
860 1 8.54773 9.40065 7.69379
861 1 8.54822 8.54845 8.5496
862 1 9.40299 9.40188 8.56605
863 1 9.40214 8.5499 9.41088
ITEM: TIMESTEP
2
ITEM: NUMBER OF ATOMS
406
ITEM: BOX BOUNDS pp pp pp
0.0000000000000000e+00 1.0259855679999999e+01
0.0000000000000000e+00 1.0259855679999999e+01
0.0000000000000000e+00 1.0259855679999999e+01
ITEM: ATOMS id type x y z
3 1 0.853152 -0.000900396 0.847247
4 1 -0.00482413 0.85155 0.8589
7 1 0.852807 0.00640703 2.55679
9 1 -0.00645966 -0.00563113 3.43817
10 1 0.858128 0.85458 3.44489
12 1 -0.00881914 0.855774 4.26394
13 1 0.00144003 -0.00671987 5.13479
16 1 0.00166187 0.852658 5.97319
17 1 -0.00696509 -0.00768302 6.83197
19 1 0.839733 -0.00765717 7.71194
26 1 0.876802 2.55916 0.0020864
30 1 0.837566 2.57371 1.7029
31 1 0.854928 1.7051 2.57166
32 1 0.00940971 2.57783 2.55442
33 1 0.00336621 1.71697 3.41718
34 1 0.858909 2.56402 3.43003
35 1 0.844523 1.69938 4.27937
36 1 0.0117885 2.56541 4.28464
37 1 0.00682059 1.71169 5.12781
38 1 0.858164 2.57231 5.14103
42 1 0.877289 2.5567 6.83468
44 1 0.0118505 2.54425 7.69735
50 1 0.859499 4.27275 0.0091593
53 1 -0.0105682 3.41146 1.71155
69 1 -0.0130067 3.43658 8.54392
71 1 0.852407 3.4365 9.40135
73 1 -0.00814944 5.12279 0.0187877
74 1 0.858153 5.98544 0.011753
76 1 -0.0080208 5.98657 0.851753
79 1 0.863009 5.11925 2.54769
80 1 -0.00771596 6.00073 2.56202
81 1 -0.00594854 5.14528 3.41787
84 1 -0.00489516 5.99244 4.28054
86 1 0.869165 6.00506 5.12554
88 1 0.00564906 5.97368 5.97324
93 1 0.00130688 5.13583 8.55157
94 1 0.845482 5.99757 8.54042
98 1 0.854529 7.67765 0.0190268
103 1 0.865071 6.82338 2.56503
105 1 -0.0103662 6.84697 3.40343
107 1 0.84468 6.82149 4.27505
113 1 -0.000944472 6.85194 6.83112
114 1 0.871278 7.69895 6.84565
116 1 -0.00557363 7.68287 7.68137
118 1 0.852059 7.69581 8.55306
119 1 0.855054 6.83123 9.39788
124 1 -0.0165158 9.40353 0.849108
127 1 0.84396 8.55342 2.56488
131 1 0.835962 8.53854 4.27173
132 1 -0.00581623 9.38475 4.26759
133 1 0.00634521 8.54417 5.13372
135 1 0.86344 8.54539 5.99528
137 1 -0.00784171 8.54338 6.84143
138 1 0.85981 9.40786 6.8416
139 1 0.854378 8.5411 7.69952
140 1 -0.00206035 9.39226 7.70107
143 1 0.846219 8.56035 9.41594
144 1 -0.0225028 9.40556 9.41095
147 1 2.55269 0.0010469 0.849869
150 1 2.56087 0.86214 1.72352
151 1 2.57521 0.00344343 2.56954
152 1 1.69548 0.858046 2.55885
155 1 2.55662 0.0122227 4.26634
160 1 1.71632 0.859623 5.98579
161 1 1.72615 0.00598381 6.84053
162 1 2.57041 0.872569 6.85017
163 1 2.56533 -0.000827303 7.69415
164 1 1.74551 0.853131 7.70882
165 1 1.71495 0.0030628 8.55643
167 1 2.55231 0.00367943 9.3964
168 1 1.70014 0.844651 9.40523
169 1 1.72178 1.69159 0.00565092
170 1 2.5585 2.57049 -0.0155132
171 1 2.55411 1.71037 0.852133
172 1 1.68294 2.55923 0.854259
173 1 1.72335 1.70462 1.70377
174 1 2.56337 2.55929 1.69853
178 1 2.56204 2.55738 3.42644
180 1 1.69861 2.5623 4.25648
184 1 1.72491 2.57493 5.99093
187 1 2.5573 1.72192 7.7064
188 1 1.7203 2.5616 7.70679
191 1 2.57685 1.71273 9.4052
193 1 1.713 3.42577 0.00414469
194 1 2.57939 4.26409 -0.00173113
199 1 2.57256 3.41462 2.5634
201 1 1.71423 3.42953 3.41397
205 1 1.71836 3.43522 5.13514
209 1 1.70929 3.40442 6.846
210 1 2.57585 4.28731 6.83139
218 1 2.58305 5.98471 -0.00272114
219 1 2.55385 5.1278 0.851485
223 1 2.57104 5.13469 2.56114
224 1 1.68127 5.96869 2.58162
225 1 1.69875 5.12074 3.42327
226 1 2.56672 5.98775 3.40711
227 1 2.56034 5.1241 4.26683
228 1 1.70024 5.96274 4.26158
232 1 1.71441 5.99599 5.98917
233 1 1.70535 5.12796 6.83311
235 1 2.56168 5.1277 7.67849
236 1 1.73324 5.9833 7.69428
239 1 2.56989 5.11507 9.41549
240 1 1.70104 5.96903 9.38971
241 1 1.69399 6.85356 0.00257972
242 1 2.55316 7.68837 0.00747228
243 1 2.56471 6.83449 0.865867
244 1 1.70474 7.66616 0.849325
245 1 1.71374 6.84061 1.69916
248 1 1.69875 7.70065 2.5515
250 1 2.5787 7.69294 3.43364
254 1 2.56781 7.69559 5.1158
258 1 2.55419 7.68366 6.83578
259 1 2.56832 6.84485 7.69082
260 1 1.69139 7.67891 7.68621
262 1 2.56541 7.68647 8.56452
264 1 1.70057 7.69553 9.41157
265 1 1.72197 8.55438 -0.00825003
267 1 2.55694 8.51211 0.843062
270 1 2.55113 9.38392 1.70462
272 1 1.70853 9.42018 2.54303
274 1 2.56687 9.39971 3.4285
282 1 2.56836 9.40671 6.84945
283 1 2.56341 8.54868 7.69859
284 1 1.71948 9.41736 7.69602
285 1 1.70663 8.5471 8.54275
286 1 2.56021 9.38448 8.52944
287 1 2.57572 8.54666 9.41688
291 1 4.27065 -0.0224518 0.847491
294 1 4.2794 0.844811 1.69354
295 1 4.28195 0.00616889 2.57519
296 1 3.42199 0.844512 2.56848
300 1 3.42884 0.863662 4.28213
302 1 4.26235 0.857244 5.15055
304 1 3.41705 0.855462 5.96809
308 1 3.41979 0.840877 7.68403
309 1 3.42083 0.00412501 8.56275
312 1 3.41924 0.83788 9.40622
313 1 3.42726 1.71253 -0.0045225
314 1 4.2767 2.5682 0.00385489
315 1 4.26859 1.73547 0.863901
316 1 3.41361 2.5706 0.856145
317 1 3.42908 1.70044 1.69361
327 1 4.26795 1.7219 5.98086
329 1 3.41454 1.7105 6.82678
331 1 4.2784 1.71541 7.68847
333 1 3.41887 1.71481 8.56599
338 1 4.29212 4.27867 -0.00761761
341 1 3.40619 3.39908 1.70932
343 1 4.28003 3.42962 2.56248
344 1 3.4139 4.28359 2.57735
348 1 3.42453 4.27352 4.27031
349 1 3.42202 3.4148 5.12132
351 1 4.26056 3.40577 5.97721
356 1 3.43208 4.27703 7.68457
358 1 4.27592 4.28575 8.56379
360 1 3.43159 4.28115 9.40118
362 1 4.27742 5.97811 -0.00436556
363 1 4.28339 5.12121 0.862303
367 1 4.27389 5.13275 2.56942
369 1 3.40193 5.12981 3.41635
370 1 4.26824 6.00211 3.41433
372 1 3.42078 5.98575 4.25646
375 1 4.27632 5.12648 6.00195
376 1 3.43322 5.99652 5.98679
377 1 3.42865 5.1418 6.86182
384 1 3.42688 5.98557 9.41804
387 1 4.28701 6.84439 0.846159
388 1 3.42481 7.70316 0.854696
389 1 3.42625 6.84117 1.69571
391 1 4.28207 6.84565 2.58146