ITEM: TIMESTEP
0
ITEM: NUMBER OF ATOMS
864
ITEM: BOX BOUNDS pp pp pp
0.0000000000000000e+00 1.0259855679999999e+01
0.0000000000000000e+00 1.0259855679999999e+01
0.0000000000000000e+00 1.0259855679999999e+01
ITEM: ATOMS id type x y z vx vy vz
1 2 0 0 0 0.512568 1.45373 -1.09024
2 2 0.854988 0.854988 0 -0.538777 0.837859 -0.700303
3 1 0.854988 0 0.854988 -0.183697 -0.0903014 -0.774307
4 1 0 0.854988 0.854988 -0.482595 -0.343936 0.391631
5 2 0 0 1.70998 -0.09244 0.2064 0.955407
6 2 0.854988 0.854988 1.70998 -1.41857 -1.43894 0.0322684
7 1 0.854988 0 2.56496 -0.218069 0.640739 -0.818154
8 2 0 0.854988 2.56496 -0.244507 0.720928 1.69073
9 1 0 0 3.41995 -0.646461 -0.563309 1.8228
10 1 0.854988 0.854988 3.41995 0.31415 -0.0404222 2.4948
11 2 0.854988 0 4.27494 1.40802 -1.69775 1.16904
12 1 0 0.854988 4.27494 -0.882326 0.0787628 -1.10051
13 1 0 0 5.12993 0.144047 -0.672053 0.487082
14 2 0.854988 0.854988 5.12993 -0.956938 -0.179956 0.427169
15 2 0.854988 0 5.98492 -0.644606 2.22181 -0.935657
16 1 0 0.854988 5.98492 0.166453 -0.233441 -1.17344
17 1 0 0 6.8399 -0.696919 -0.768855 -0.793608
18 2 0.854988 0.854988 6.8399 0.180138 0.564686 1.56945
19 1 0.854988 0 7.69489 -1.52613 -0.76631 1.70576
20 2 0 0.854988 7.69489 -1.17382 1.84268 0.0694491
21 2 0 0 8.54988 -0.971441 0.662258 -0.719618
22 2 0.854988 0.854988 8.54988 -1.71511 0.203216 1.42753
23 2 0.854988 0 9.40487 -0.832233 -1.4072 0.944789
24 2 0 0.854988 9.40487 -1.33693 -0.168278 -1.13638
25 2 0 1.70998 0 0.00262075 -0.346569 -0.720542
26 1 0.854988 2.56496 0 2.18252 -0.580118 0.208878
27 2 0.854988 1.70998 0.854988 -0.171384 0.083393 0.686509
28 2 0 2.56496 0.854988 0.894227 0.199877 0.499789
29 2 0 1.70998 1.70998 -0.901426 -0.455727 -0.892945
30 1 0.854988 2.56496 1.70998 -1.74298 0.874587 -0.708476
31 1 0.854988 1.70998 2.56496 -0.00596287 -0.487584 0.670059
32 1 0 2.56496 2.56496 0.941545 1.28717 -1.05541
33 1 0 1.70998 3.41995 0.336822 0.699225 -0.277814
34 1 0.854988 2.56496 3.41995 0.392313 -0.0944919 1.00807
35 1 0.854988 1.70998 4.27494 -1.04706 -1.05976 0.44325
36 1 0 2.56496 4.27494 1.17893 0.0443571 0.970384
37 1 0 1.70998 5.12993 0.682234 0.17206 -0.211837
38 1 0.854988 2.56496 5.12993 0.317329 0.73467 1.11074
39 2 0.854988 1.70998 5.98492 1.90946 -0.00727106 1.74772
40 2 0 2.56496 5.98492 -0.303852 -0.416023 -0.876468
41 2 0 1.70998 6.8399 0.942228 -0.952717 1.01428
42 1 0.854988 2.56496 6.8399 2.2309 -0.826207 -0.523045
43 2 0.854988 1.70998 7.69489 -0.257792 -0.481547 -0.968986
44 1 0 2.56496 7.69489 1.18566 -2.07271 0.245762
45 2 0 1.70998 8.54988 -0.288288 0.791277 -0.607858
46 2 0.854988 2.56496 8.54988 -0.285303 0.326913 0.848442
47 2 0.854988 1.70998 9.40487 0.723843 -2.63614 -1.55857
48 2 0 2.56496 9.40487 0.462651 1.94592 0.918423
49 2 0 3.41995 0 -0.579501 0.999844 0.309878
50 1 0.854988 4.27494 0 0.451375 -0.219211 0.916023
51 2 0.854988 3.41995 0.854988 -1.00956 0.394146 0.972504
52 2 0 4.27494 0.854988 0.128396 1.68561 -0.240329
53 1 0 3.41995 1.70998 -1.05732 -0.850189 0.157422
54 2 0.854988 4.27494 1.70998 0.756011 1.92117 0.180214
55 2 0.854988 3.41995 2.56496 -1.34303 0.301875 0.9388
56 2 0 4.27494 2.56496 -0.8685 0.13762 -0.650932
57 2 0 3.41995 3.41995 1.98342 -0.182396 0.81713
58 2 0.854988 4.27494 3.41995 0.623854 0.959016 -0.0294624
59 2 0.854988 3.41995 4.27494 1.26902 0.000317943 -1.20425
60 2 0 4.27494 4.27494 -0.915036 -0.133407 -0.429982
61 2 0 3.41995 5.12993 2.01093 0.415497 -0.718687
62 2 0.854988 4.27494 5.12993 0.537786 -0.254638 1.79133
63 2 0.854988 3.41995 5.98492 -0.272395 -1.20626 -0.655051
64 2 0 4.27494 5.98492 0.323029 -0.262776 0.291962
65 2 0 3.41995 6.8399 -0.185568 -0.379962 1.03438
66 2 0.854988 4.27494 6.8399 -0.330837 0.937787 -0.441479
67 2 0.854988 3.41995 7.69489 0.804823 -0.653633 0.775073
68 2 0 4.27494 7.69489 -2.26232 0.0998562 0.468651
69 1 0 3.41995 8.54988 -1.30095 1.6637 -0.595592
70 2 0.854988 4.27494 8.54988 0.227679 -1.35564 -2.15025
71 1 0.854988 3.41995 9.40487 -0.258124 1.65518 -0.3518
72 2 0 4.27494 9.40487 1.2636 1.24063 -0.387107
73 1 0 5.12993 0 -0.815327 -0.714584 1.87945
74 1 0.854988 5.98492 0 0.316843 0.0523692 1.17565
75 2 0.854988 5.12993 0.854988 -0.806543 0.0624724 2.44484
76 1 0 5.98492 0.854988 -0.802283 0.165442 -0.324003
77 2 0 5.12993 1.70998 0.759459 0.933421 1.23379
78 2 0.854988 5.98492 1.70998 1.84844 -0.336997 -1.43958
79 1 0.854988 5.12993 2.56496 0.802894 -1.068 -1.72822
80 1 0 5.98492 2.56496 -0.77228 1.58185 -0.294431
81 1 0 5.12993 3.41995 -0.595149 1.53564 -0.207844
82 2 0.854988 5.98492 3.41995 -2.09017 -0.544748 0.365645
83 2 0.854988 5.12993 4.27494 0.559444 0.20031 -0.235774
84 1 0 5.98492 4.27494 -0.489665 0.752619 0.560245
85 2 0 5.12993 5.12993 -1.34567 -2.12655 0.248269
86 1 0.854988 5.98492 5.12993 1.41841 2.01517 -0.439601
87 2 0.854988 5.12993 5.98492 -0.246592 -0.277475 1.9666
88 1 0 5.98492 5.98492 0.565018 -1.12418 -1.16765
89 2 0 5.12993 6.8399 -0.442093 0.164505 -0.256908
90 2 0.854988 5.98492 6.8399 -1.14841 1.41244 1.45843
91 2 0.854988 5.12993 7.69489 1.45542 -1.57258 -1.05639
92 2 0 5.98492 7.69489 -1.88721 -0.66926 -0.156566
93 1 0 5.12993 8.54988 0.130616 0.590242 0.169589
94 1 0.854988 5.98492 8.54988 -0.950978 1.26656 -0.945873
95 2 0.854988 5.12993 9.40487 -0.91362 0.85169 0.260576
96 2 0 5.98492 9.40487 -0.844435 -1.82238 -0.512924
97 2 0 6.8399 0 -0.307487 -0.693297 -1.26388
98 1 0.854988 7.69489 0 -0.0454929 -1.72518 1.90366
99 2 0.854988 6.8399 0.854988 0.116461 -1.46583 0.649396
100 2 0 7.69489 0.854988 -1.72126 -0.793739 -0.862262
101 2 0 6.8399 1.70998 -1.15726 0.980949 0.452167
102 2 0.854988 7.69489 1.70998 -1.19586 -0.650827 -1.33786
103 1 0.854988 6.8399 2.56496 1.00904 -1.65338 0.00724547
104 2 0 7.69489 2.56496 -0.246314 -0.61059 0.467127
105 1 0 6.8399 3.41995 -1.03708 0.706653 -1.65264
106 2 0.854988 7.69489 3.41995 -1.34869 -0.852173 -0.834633
107 1 0.854988 6.8399 4.27494 -1.03127 -1.84258 0.0110162
108 2 0 7.69489 4.27494 0.257958 0.402833 0.607919
109 2 0 6.8399 5.12993 -0.015537 1.97355 -1.24777
110 2 0.854988 7.69489 5.12993 0.870744 0.171995 0.767549
111 2 0.854988 6.8399 5.98492 1.39771 1.33271 -0.0703176
112 2 0 7.69489 5.98492 0.193664 -0.787311 0.0334867
113 1 0 6.8399 6.8399 -0.0944334 1.20431 -0.878835
114 1 0.854988 7.69489 6.8399 1.62989 0.406092 0.575634
115 2 0.854988 6.8399 7.69489 -0.131231 1.13256 -1.22349
116 1 0 7.69489 7.69489 -0.557706 -1.20309 -1.35241
117 2 0 6.8399 8.54988 -0.123526 -0.314509 -0.111086
118 1 0.854988 7.69489 8.54988 -0.292743 0.0924408 0.318133
119 1 0.854988 6.8399 9.40487 0.0069303 -0.867473 -0.699541
120 2 0 7.69489 9.40487 -1.25854 0.0878889 -1.19344
121 2 0 8.54988 0 -0.132682 -0.953636 0.11092
122 2 0.854988 9.40487 0 -0.183621 1.24021 -0.349288
123 2 0.854988 8.54988 0.854988 1.67008 -1.26481 -0.95797
124 1 0 9.40487 0.854988 -1.65217 -0.133931 -0.588063
125 2 0 8.54988 1.70998 -1.05004 0.116957 0.0481647
126 2 0.854988 9.40487 1.70998 0.0131194 1.80807 -0.470497
127 1 0.854988 8.54988 2.56496 -1.10322 0.354183 -0.00817955
128 2 0 9.40487 2.56496 0.70681 -1.03504 0.427309
129 2 0 8.54988 3.41995 0.318644 -0.114619 -0.51031
130 2 0.854988 9.40487 3.41995 -2.53371 1.0149 -1.57587
131 1 0.854988 8.54988 4.27494 -1.90358 -1.13473 -0.321278
132 1 0 9.40487 4.27494 -0.581931 -2.01282 -0.735369
133 1 0 8.54988 5.12993 0.634534 -0.570733 0.379807
134 2 0.854988 9.40487 5.12993 2.27593 0.0494031 -2.06555
135 1 0.854988 8.54988 5.98492 0.845674 -0.449388 1.03725
136 2 0 9.40487 5.98492 0.53914 -0.843285 -1.02629
137 1 0 8.54988 6.8399 -0.784822 -0.650153 0.153104
138 1 0.854988 9.40487 6.8399 0.482556 0.299075 0.169599
139 1 0.854988 8.54988 7.69489 -0.0608767 -0.878339 0.463336
140 1 0 9.40487 7.69489 -0.205936 -1.26066 0.617921
141 2 0 8.54988 8.54988 0.0600014 -0.938875 0.416872
142 2 0.854988 9.40487 8.54988 -0.224993 0.178992 0.63191
143 1 0.854988 8.54988 9.40487 -0.877038 1.04706 1.10751
144 1 0 9.40487 9.40487 -2.25127 0.0697372 0.608647
145 2 1.70998 0 0 0.313627 -0.241487 -0.30454
146 2 2.56496 0.854988 0 0.460313 -0.916764 1.54234
147 1 2.56496 0 0.854988 -1.22789 0.104745 -0.512331
148 2 1.70998 0.854988 0.854988 0.83209 -0.101608 0.118389
149 2 1.70998 0 1.70998 1.80234 0.891687 -0.292126
150 1 2.56496 0.854988 1.70998 -0.409825 0.715467 1.35496
151 1 2.56496 0 2.56496 1.0256 0.344513 0.457938
152 1 1.70998 0.854988 2.56496 -1.45047 0.306164 -0.61186
153 2 1.70998 0 3.41995 1.20634 0.624149 1.73779
154 2 2.56496 0.854988 3.41995 0.177565 -0.588781 0.324539
155 1 2.56496 0 4.27494 -0.835159 1.22288 -0.860423
156 2 1.70998 0.854988 4.27494 1.82024 -1.32704 -0.838544
157 2 1.70998 0 5.12993 1.10149 -1.5891 -1.15738
158 2 2.56496 0.854988 5.12993 0.935126 0.636597 -1.1951
159 2 2.56496 0 5.98492 0.6141 -0.213509 0.0281915
160 1 1.70998 0.854988 5.98492 0.634504 0.463705 0.0872192
161 1 1.70998 0 6.8399 1.61778 0.598296 0.0629061
162 1 2.56496 0.854988 6.8399 0.544952 1.75877 1.02693
163 1 2.56496 0 7.69489 0.0359537 -0.0826847 -0.0744999
164 1 1.70998 0.854988 7.69489 3.5557 -0.185832 1.39333
165 1 1.70998 0 8.54988 0.498186 0.306511 0.655895
166 2 2.56496 0.854988 8.54988 -0.194031 -0.272029 -2.42951
167 1 2.56496 0 9.40487 -1.26626 0.368412 -0.846531
168 1 1.70998 0.854988 9.40487 -0.984665 -1.03401 0.0361584
169 1 1.70998 1.70998 0 1.18144 -1.83879 0.565481
170 1 2.56496 2.56496 0 -0.646425 0.553176 -1.552
171 1 2.56496 1.70998 0.854988 -1.08587 0.0396779 -0.285538
172 1 1.70998 2.56496 0.854988 -2.70529 -0.573992 -0.0730671
173 1 1.70998 1.70998 1.70998 1.33874 -0.535499 -0.620968
174 1 2.56496 2.56496 1.70998 -0.159257 -0.567246 -1.14552
175 2 2.56496 1.70998 2.56496 -2.24092 0.236846 -1.28501
176 2 1.70998 2.56496 2.56496 -0.0432917 1.80993 1.79895
177 2 1.70998 1.70998 3.41995 -0.539583 -1.08722 0.367054
178 1 2.56496 2.56496 3.41995 -0.292352 -0.758251 0.64922
179 2 2.56496 1.70998 4.27494 0.462592 -0.695351 -0.0993488
180 1 1.70998 2.56496 4.27494 -1.13682 -0.266045 -1.8466
181 2 1.70998 1.70998 5.12993 1.1149 0.948955 -0.437255
182 2 2.56496 2.56496 5.12993 0.402953 -0.508362 0.035432
183 2 2.56496 1.70998 5.98492 -0.96079 -0.582692 0.408851
184 1 1.70998 2.56496 5.98492 1.49361 0.997166 0.601543
185 2 1.70998 1.70998 6.8399 0.411998 -0.298729 1.01309
186 2 2.56496 2.56496 6.8399 -0.528363 -0.739761 -0.469808
187 1 2.56496 1.70998 7.69489 -0.767453 1.19495 1.15123
188 1 1.70998 2.56496 7.69489 1.03257 -0.336701 1.1905
189 2 1.70998 1.70998 8.54988 0.0564679 0.83285 -1.06562
190 2 2.56496 2.56496 8.54988 0.691456 0.875121 -0.330501
191 1 2.56496 1.70998 9.40487 1.1891 0.27535 0.033438
192 2 1.70998 2.56496 9.40487 -1.2217 -0.0337439 -0.190488
193 1 1.70998 3.41995 0 0.302683 0.581648 0.414534
194 1 2.56496 4.27494 0 1.44303 -1.08492 -0.173234
195 2 2.56496 3.41995 0.854988 -0.160118 -1.58511 1.31446
196 2 1.70998 4.27494 0.854988 -0.60904 0.936562 0.554739
197 2 1.70998 3.41995 1.70998 -0.500562 -0.03038 1.15939
198 2 2.56496 4.27494 1.70998 -0.206048 1.34302 -0.393714
199 1 2.56496 3.41995 2.56496 0.76017 -0.53339 -0.156512
200 2 1.70998 4.27494 2.56496 0.227734 0.672588 -0.0889776
201 1 1.70998 3.41995 3.41995 0.425211 0.957911 -0.598227
202 2 2.56496 4.27494 3.41995 -0.972347 1.36392 0.498683
203 2 2.56496 3.41995 4.27494 2.28755 -0.181056 -0.195004
204 2 1.70998 4.27494 4.27494 0.0115489 0.234873 2.6018
205 1 1.70998 3.41995 5.12993 0.838901 1.52764 0.521239
206 2 2.56496 4.27494 5.12993 -0.167233 -0.640749 -0.726354
207 2 2.56496 3.41995 5.98492 -0.349186 -1.8915 0.0431507
208 2 1.70998 4.27494 5.98492 0.474223 0.0919639 -1.10727
209 1 1.70998 3.41995 6.8399 -0.0694118 -1.5541 0.610402
210 1 2.56496 4.27494 6.8399 1.08936 1.23719 -0.851417
211 2 2.56496 3.41995 7.69489 0.947769 -0.460225 1.55317
212 2 1.70998 4.27494 7.69489 -0.700553 -1.29176 -1.73426
213 2 1.70998 3.41995 8.54988 -0.586802 -0.882918 0.414178
214 2 2.56496 4.27494 8.54988 -1.54156 -1.59284 0.208711
215 2 2.56496 3.41995 9.40487 -0.223062 0.715187 -0.810776
216 2 1.70998 4.27494 9.40487 -0.124447 -0.719424 -0.121755
217 2 1.70998 5.12993 0 0.997674 -0.858137 1.39254
218 1 2.56496 5.98492 0 1.81014 -0.0212246 -0.272275
219 1 2.56496 5.12993 0.854988 -1.11158 -0.212766 -0.350424
220 2 1.70998 5.98492 0.854988 0.946267 -0.0532095 -0.763819
221 2 1.70998 5.12993 1.70998 -2.13466 0.254786 -1.68812
222 2 2.56496 5.98492 1.70998 -0.0691307 -0.272567 -1.00043
223 1 2.56496 5.12993 2.56496 0.60867 0.476276 -0.382305
224 1 1.70998 5.98492 2.56496 -2.87143 -1.62301 1.66647
225 1 1.70998 5.12993 3.41995 -1.12323 -0.91919 0.332298
226 1 2.56496 5.98492 3.41995 0.176207 0.284065 -1.28502
227 1 2.56496 5.12993 4.27494 -0.4626 -0.583074 -0.811444
228 1 1.70998 5.98492 4.27494 -0.974176 -2.21816 -1.33664
229 2 1.70998 5.12993 5.12993 1.56475 -0.444821 -0.136789
230 2 2.56496 5.98492 5.12993 1.13493 0.947004 1.38356
231 2 2.56496 5.12993 5.98492 0.493946 0.535061 -1.45624
232 1 1.70998 5.98492 5.98492 0.443223 1.10841 0.425704
233 1 1.70998 5.12993 6.8399 -0.462921 -0.197353 -0.679166
234 2 2.56496 5.98492 6.8399 -0.285265 0.985657 0.272573
235 1 2.56496 5.12993 7.69489 -0.329258 -0.223093 -1.64136
236 1 1.70998 5.98492 7.69489 2.32782 -0.162155 -0.0611065
237 2 1.70998 5.12993 8.54988 1.30186 -0.728855 -0.364703
238 2 2.56496 5.98492 8.54988 0.860446 1.50342 -0.370714
239 1 2.56496 5.12993 9.40487 0.492845 -1.48601 1.06275
240 1 1.70998 5.98492 9.40487 -0.894636 -1.58921 -1.51662
241 1 1.70998 6.8399 0 -1.59977 1.36695 0.258087
242 1 2.56496 7.69489 0 -1.18067 -0.651667 0.747414
243 1 2.56496 6.8399 0.854988 -0.0255431 -0.541906 1.0886
244 1 1.70998 7.69489 0.854988 -0.524051 -2.87377 -0.566771
245 1 1.70998 6.8399 1.70998 0.376778 0.0711144 -1.08228
246 2 2.56496 7.69489 1.70998 0.0776336 0.679604 1.04331
247 2 2.56496 6.8399 2.56496 0.194455 -1.6144 -0.335074
248 1 1.70998 7.69489 2.56496 -1.12334 0.576434 -1.34636
249 2 1.70998 6.8399 3.41995 0.4313 0.894794 -1.79319
250 1 2.56496 7.69489 3.41995 1.37388 -0.19539 1.36919
251 2 2.56496 6.8399 4.27494 -1.5819 0.433503 -1.37584
252 2 1.70998 7.69489 4.27494 -0.257787 1.1851 0.920488
253 2 1.70998 6.8399 5.12993 -0.471163 -0.0339566 -0.108694
254 1 2.56496 7.69489 5.12993 0.284476 0.0700889 -1.41356
255 2 2.56496 6.8399 5.98492 -1.69075 0.746046 -2.0238
256 2 1.70998 7.69489 5.98492 0.5409 0.626441 0.381614
257 2 1.70998 6.8399 6.8399 0.70343 -0.703104 -0.927852
258 1 2.56496 7.69489 6.8399 -1.07816 -1.12324 -0.411923
259 1 2.56496 6.8399 7.69489 0.336094 0.494635 -0.40763
260 1 1.70998 7.69489 7.69489 -1.85942 -1.59847 -0.868308
261 2 1.70998 6.8399 8.54988 -0.530492 0.132338 -0.043263
262 1 2.56496 7.69489 8.54988 0.0443398 -0.843007 1.46404
263 2 2.56496 6.8399 9.40487 -0.573909 3.20307 1.77113
264 1 1.70998 7.69489 9.40487 -0.940727 0.0631285 0.670803
265 1 1.70998 8.54988 0 1.19973 0.450765 -0.825285
266 2 2.56496 9.40487 0 1.53759 0.439647 0.176173
267 1 2.56496 8.54988 0.854988 -0.802248 -3.77837 -1.19298
268 2 1.70998 9.40487 0.854988 -0.270042 -0.473027 -0.0280387
269 2 1.70998 8.54988 1.70998 -0.0732379 0.456036 -0.98882
270 1 2.56496 9.40487 1.70998 -1.38382 -2.09539 -0.535407
271 2 2.56496 8.54988 2.56496 -0.0698299 -1.83972 0.890463
272 1 1.70998 9.40487 2.56496 -0.144678 1.5313 -2.19486
273 2 1.70998 8.54988 3.41995 0.0638062 2.32518 0.27432
274 1 2.56496 9.40487 3.41995 0.190538 -0.51591 0.855363
275 2 2.56496 8.54988 4.27494 0.24946 -0.173572 0.720669
276 2 1.70998 9.40487 4.27494 0.199381 2.19398 0.168578
277 2 1.70998 8.54988 5.12993 0.6835 1.32596 -0.500122
278 2 2.56496 9.40487 5.12993 -0.0392729 -0.0516776 -0.192318
279 2 2.56496 8.54988 5.98492 0.239479 -0.729583 0.592079
280 2 1.70998 9.40487 5.98492 -1.27333 -0.0281838 0.666583
281 2 1.70998 8.54988 6.8399 -1.22443 -0.168934 -1.08689
282 1 2.56496 9.40487 6.8399 0.339538 0.184874 0.954949
283 1 2.56496 8.54988 7.69489 -0.155211 -0.119892 0.370331
284 1 1.70998 9.40487 7.69489 0.950606 1.2493 0.112683
285 1 1.70998 8.54988 8.54988 -0.33497 -0.278127 -0.71324
286 1 2.56496 9.40487 8.54988 -0.475386 -2.03949 -2.04477
287 1 2.56496 8.54988 9.40487 1.07565 -0.322161 1.202
288 2 1.70998 9.40487 9.40487 0.0245298 -0.355156 -2.12626
289 2 3.41995 0 0 -0.263008 -0.65675 0.327194
290 2 4.27494 0.854988 0 -0.392476 0.949445 -1.22894
291 1 4.27494 0 0.854988 -0.429563 -2.24633 -0.749856
292 2 3.41995 0.854988 0.854988 -0.162016 1.27591 1.43978
293 2 3.41995 0 1.70998 -0.524339 0.942408 0.804286
294 1 4.27494 0.854988 1.70998 0.446336 -1.01802 -1.64411
295 1 4.27494 0 2.56496 0.701292 0.616894 1.02269
296 1 3.41995 0.854988 2.56496 0.204201 -1.04842 0.352162
297 2 3.41995 0 3.41995 0.00124512 2.22583 -0.384964
298 2 4.27494 0.854988 3.41995 -0.0313142 1.12673 0.237662
299 2 4.27494 0 4.27494 -0.709982 -0.604637 1.80723
300 1 3.41995 0.854988 4.27494 0.888688 0.86769 0.718748
301 2 3.41995 0 5.12993 1.83348 0.46133 -1.17483
302 1 4.27494 0.854988 5.12993 -1.25983 0.225417 2.06277
303 2 4.27494 0 5.98492 0.239461 0.189877 1.02675
304 1 3.41995 0.854988 5.98492 -0.29027 0.0474482 -1.68419
305 2 3.41995 0 6.8399 0.0669743 1.16908 0.795129
306 2 4.27494 0.854988 6.8399 0.497258 -0.712341 0.698859
307 2 4.27494 0 7.69489 -0.323689 0.653787 -0.124472
308 1 3.41995 0.854988 7.69489 -0.0160664 -1.41206 -1.0872
309 1 3.41995 0 8.54988 0.0884619 0.413235 1.28781
310 2 4.27494 0.854988 8.54988 -1.8107 -0.555362 0.139743
311 2 4.27494 0 9.40487 -1.76956 -0.989827 -0.288824
312 1 3.41995 0.854988 9.40487 -0.0710968 -1.71154 0.135269
313 1 3.41995 1.70998 0 0.731525 0.254897 -0.4526
314 1 4.27494 2.56496 0 0.175837 0.324015 0.385734
315 1 4.27494 1.70998 0.854988 -0.634807 2.55025 0.892033
316 1 3.41995 2.56496 0.854988 -0.634074 0.564105 0.11613
317 1 3.41995 1.70998 1.70998 0.913209 -0.954042 -1.6372
318 2 4.27494 2.56496 1.70998 -0.458468 0.595366 0.0534286
319 2 4.27494 1.70998 2.56496 -0.711813 -0.45909 0.235141
320 2 3.41995 2.56496 2.56496 0.719803 0.813961 -0.342537
321 2 3.41995 1.70998 3.41995 -0.285196 -0.817749 -0.0106849
322 2 4.27494 2.56496 3.41995 0.00423646 -1.48923 0.0011116
323 2 4.27494 1.70998 4.27494 0.149992 -0.0749987 -0.290231
324 2 3.41995 2.56496 4.27494 -0.138845 -0.801517 1.59032
325 2 3.41995 1.70998 5.12993 -0.888042 -0.698492 1.594
326 2 4.27494 2.56496 5.12993 -0.0247863 -0.0251143 -0.0277482
327 1 4.27494 1.70998 5.98492 -0.699013 1.19258 -0.406468
328 2 3.41995 2.56496 5.98492 -1.71212 0.211903 2.07784
329 1 3.41995 1.70998 6.8399 -0.54169 0.0523656 -1.31287
330 2 4.27494 2.56496 6.8399 -0.342158 0.295327 0.609387
331 1 4.27494 1.70998 7.69489 0.346436 0.543561 -0.642688
332 2 3.41995 2.56496 7.69489 2.11946 -0.896386 -0.637935
333 1 3.41995 1.70998 8.54988 -0.108387 0.483637 1.6121
334 2 4.27494 2.56496 8.54988 -2.26223 1.19795 -0.178694
335 2 4.27494 1.70998 9.40487 -0.51016 0.717112 -0.0639633
336 2 3.41995 2.56496 9.40487 1.67621 0.937713 1.01856
337 2 3.41995 3.41995 0 0.573127 1.22004 -1.04388
338 1 4.27494 4.27494 0 1.71887 0.373303 -0.761908
339 2 4.27494 3.41995 0.854988 -0.145341 -0.421308 -0.05681
340 2 3.41995 4.27494 0.854988 -1.18342 0.202751 -0.696916
341 1 3.41995 3.41995 1.70998 -1.37662 -2.08839 -0.06546
342 2 4.27494 4.27494 1.70998 -1.25915 -0.144647 -0.0994282
343 1 4.27494 3.41995 2.56496 0.509527 0.967204 -0.248426
344 1 3.41995 4.27494 2.56496 -0.604925 0.865767 1.23953
345 2 3.41995 3.41995 3.41995 1.64378 0.526639 0.817571
346 2 4.27494 4.27494 3.41995 1.25059 -0.653152 -0.2891
347 2 4.27494 3.41995 4.27494 -2.12781 -1.67288 0.0646663
348 1 3.41995 4.27494 4.27494 0.458141 -0.1423 -0.463182
349 1 3.41995 3.41995 5.12993 0.206844 -0.515622 -0.861791
350 2 4.27494 4.27494 5.12993 1.49632 0.91222 -0.44583
351 1 4.27494 3.41995 5.98492 -1.43877 -1.41899 -0.771063
352 2 3.41995 4.27494 5.98492 -2.05848 0.718806 0.36207
353 2 3.41995 3.41995 6.8399 -1.58146 0.373267 -0.275003
354 2 4.27494 4.27494 6.8399 0.794387 -1.32247 -1.53113
355 2 4.27494 3.41995 7.69489 0.761724 -0.594699 1.1923
356 1 3.41995 4.27494 7.69489 1.21337 0.208976 -1.0325
357 2 3.41995 3.41995 8.54988 1.60455 -0.322738 1.68592
358 1 4.27494 4.27494 8.54988 0.0976923 1.08117 1.39167
359 2 4.27494 3.41995 9.40487 -0.197517 1.13196 -0.79522
360 1 3.41995 4.27494 9.40487 1.16458 0.62103 -0.368813
361 2 3.41995 5.12993 0 -0.799498 1.27089 -0.497709
362 1 4.27494 5.98492 0 0.24765 -0.680888 -0.43696
363 1 4.27494 5.12993 0.854988 0.844925 -0.871698 0.732028
364 2 3.41995 5.98492 0.854988 -0.6964 -2.08778 0.0959125
365 2 3.41995 5.12993 1.70998 -0.534348 0.790706 0.112624
366 2 4.27494 5.98492 1.70998 1.50467 -0.934129 -0.0559369
367 1 4.27494 5.12993 2.56496 -0.104993 0.282831 0.445604
368 2 3.41995 5.98492 2.56496 0.149044 -0.965876 -0.387268
369 1 3.41995 5.12993 3.41995 -1.80357 -0.0121877 -0.360449
370 1 4.27494 5.98492 3.41995 -0.670772 1.72007 -0.562186
371 2 4.27494 5.12993 4.27494 -0.414737 0.0627111 -0.377215
372 1 3.41995 5.98492 4.27494 0.0827117 0.0835553 -1.84888
373 2 3.41995 5.12993 5.12993 0.648963 1.37269 -0.472617
374 2 4.27494 5.98492 5.12993 -0.785779 -0.115821 0.729486
375 1 4.27494 5.12993 5.98492 0.138598 -0.345122 1.70485
376 1 3.41995 5.98492 5.98492 1.32771 1.16124 0.187523
377 1 3.41995 5.12993 6.8399 0.870598 1.18727 2.19289
378 2 4.27494 5.98492 6.8399 -0.947037 -0.17326 0.247513
379 2 4.27494 5.12993 7.69489 -2.15079 0.582888 -0.541819
380 2 3.41995 5.98492 7.69489 0.28603 1.54263 1.25402
381 2 3.41995 5.12993 8.54988 1.80589 -1.1218 -0.409885
382 2 4.27494 5.98492 8.54988 -0.760779 -1.29711 -0.198688
383 2 4.27494 5.12993 9.40487 -1.27216 0.053103 -2.46122
384 1 3.41995 5.98492 9.40487 0.69262 0.0659195 1.31812
385 2 3.41995 6.8399 0 1.64715 -2.1231 0.578632
386 2 4.27494 7.69489 0 -0.562723 -0.209407 1.06821
387 1 4.27494 6.8399 0.854988 1.20695 0.449078 -0.883305
388 1 3.41995 7.69489 0.854988 0.486389 0.827826 -0.0291782
389 1 3.41995 6.8399 1.70998 0.629645 0.126803 -1.4269
390 2 4.27494 7.69489 1.70998 0.167647 0.167377 1.15477
391 1 4.27494 6.8399 2.56496 0.713514 0.574423 1.65091
392 2 3.41995 7.69489 2.56496 -1.61813 0.333242 -1.73938
393 2 3.41995 6.8399 3.41995 1.07803 -0.441074 0.117307
394 1 4.27494 7.69489 3.41995 0.117195 -0.0818978 1.10558
395 1 4.27494 6.8399 4.27494 1.09938 -0.992741 2.40654
396 2 3.41995 7.69489 4.27494 1.15501 -1.3414 0.540924
397 2 3.41995 6.8399 5.12993 0.0979639 -0.243389 0.174786
398 1 4.27494 7.69489 5.12993 0.471572 -1.16462 -0.185978
399 2 4.27494 6.8399 5.98492 0.0131255 0.405137 1.06709
400 2 3.41995 7.69489 5.98492 0.14016 -0.4734 -2.25374
401 1 3.41995 6.8399 6.8399 -0.34109 -0.331618 -0.537046
402 1 4.27494 7.69489 6.8399 -1.06297 0.330241 0.0646641
403 2 4.27494 6.8399 7.69489 -0.930355 -0.595084 -0.384327
404 1 3.41995 7.69489 7.69489 -1.58664 -0.853244 1.07338
405 2 3.41995 6.8399 8.54988 0.820985 -1.5419 0.86126
406 1 4.27494 7.69489 8.54988 0.340802 -0.00924108 -0.196244
407 2 4.27494 6.8399 9.40487 -1.20108 0.610884 0.230646
408 1 3.41995 7.69489 9.40487 -0.326452 -2.35488 0.936035
409 1 3.41995 8.54988 0 -0.957649 1.14814 -1.35304
410 1 4.27494 9.40487 0 -1.03671 1.09791 0.0373834
411 2 4.27494 8.54988 0.854988 0.362976 -1.07428 -0.737883
412 1 3.41995 9.40487 0.854988 -0.213231 0.382912 -0.758492
413 2 3.41995 8.54988 1.70998 -0.0693897 0.681601 -0.710338
414 2 4.27494 9.40487 1.70998 1.93936 0.408246 0.450917
415 2 4.27494 8.54988 2.56496 0.0877691 -1.79554 -0.149227
416 1 3.41995 9.40487 2.56496 1.59446 -0.221637 1.40298
417 2 3.41995 8.54988 3.41995 -1.23752 -0.950862 0.379962
418 2 4.27494 9.40487 3.41995 -1.50065 0.165704 0.6161
419 2 4.27494 8.54988 4.27494 -0.739843 1.37573 0.795709
420 2 3.41995 9.40487 4.27494 0.535936 -0.402539 1.227
421 1 3.41995 8.54988 5.12993 -0.474937 0.238421 -0.0562478
422 2 4.27494 9.40487 5.12993 0.619947 -0.31517 -0.720547
423 2 4.27494 8.54988 5.98492 0.135361 0.287541 -1.44344
424 2 3.41995 9.40487 5.98492 0.574325 0.220541 -1.28329
425 2 3.41995 8.54988 6.8399 1.15792 -0.93747 0.463858
426 1 4.27494 9.40487 6.8399 0.215703 0.72145 0.0917758
427 1 4.27494 8.54988 7.69489 -0.607144 0.018041 0.614782
428 1 3.41995 9.40487 7.69489 -1.10277 0.489483 -0.465903
429 1 3.41995 8.54988 8.54988 0.48752 2.42318 0.0669498
430 2 4.27494 9.40487 8.54988 -0.611922 -1.0454 0.786132
431 1 4.27494 8.54988 9.40487 -0.164229 1.24181 0.130499
432 2 3.41995 9.40487 9.40487 0.408782 -1.25965 -0.532841
433 1 5.12993 0 0 0.23784 0.878047 -1.36048
434 2 5.98492 0.854988 0 -0.011843 -0.645356 -2.28106
435 1 5.98492 0 0.854988 -0.756318 1.54117 -1.46345
436 1 5.12993 0.854988 0.854988 -0.0479505 -1.38969 -0.574294
437 2 5.12993 0 1.70998 1.19426 2.18683 -1.04652
438 2 5.98492 0.854988 1.70998 1.35416 2.47704 0.937459
439 2 5.98492 0 2.56496 2.37527 0.990931 -2.17674
440 2 5.12993 0.854988 2.56496 -0.38941 -0.331663 -1.89207
441 1 5.12993 0 3.41995 1.87283 -0.858142 1.19759
442 2 5.98492 0.854988 3.41995 0.641769 1.87328 0.232821
443 1 5.98492 0 4.27494 -0.429258 0.0622881 1.41244
444 2 5.12993 0.854988 4.27494 0.185212 1.19649 0.328867
445 2 5.12993 0 5.12993 0.0284966 -0.191478 -0.0635518
446 1 5.98492 0.854988 5.12993 0.418593 -0.683159 0.797875
447 1 5.98492 0 5.98492 1.09884 0.503155 0.288189
448 1 5.12993 0.854988 5.98492 0.558973 0.669066 -0.771268
449 2 5.12993 0 6.8399 -0.106636 1.15968 -0.597543
450 1 5.98492 0.854988 6.8399 2.03932 1.11205 0.105246
451 1 5.98492 0 7.69489 -0.6608 -0.179823 0.261025
452 2 5.12993 0.854988 7.69489 0.424089 -2.10415 0.0930019
453 2 5.12993 0 8.54988 0.511528 -0.37537 -0.521908
454 2 5.98492 0.854988 8.54988 0.755843 -0.394242 0.34087
455 1 5.98492 0 9.40487 -0.553842 0.0502017 -1.404
456 2 5.12993 0.854988 9.40487 -0.759203 1.18287 -1.0576
457 1 5.12993 1.70998 0 0.934059 -1.07832 -1.17341
458 1 5.98492 2.56496 0 0.876854 0.281586 -1.88151
459 2 5.98492 1.70998 0.854988 -1.02496 1.36366 -0.370358
460 1 5.12993 2.56496 0.854988 -0.601533 -0.919614 0.498578
461 1 5.12993 1.70998 1.70998 -2.99579 -0.219203 0.267205
462 1 5.98492 2.56496 1.70998 0.068608 0.374987 0.954404
463 2 5.98492 1.70998 2.56496 0.604762 0.852775 -0.0196308
464 2 5.12993 2.56496 2.56496 -0.0327012 0.17009 0.0772508
465 1 5.12993 1.70998 3.41995 -1.15135 0.300547 -0.164015
466 2 5.98492 2.56496 3.41995 -0.157675 -0.254784 -2.17052
467 2 5.98492 1.70998 4.27494 -0.0908255 1.88789 1.37515
468 2 5.12993 2.56496 4.27494 -0.0313964 0.705175 1.12069
469 2 5.12993 1.70998 5.12993 0.678515 0.561073 0.958501
470 1 5.98492 2.56496 5.12993 -1.11769 1.14445 0.548066
471 1 5.98492 1.70998 5.98492 1.0222 0.669925 -0.202842
472 1 5.12993 2.56496 5.98492 1.25347 0.0799635 0.347593
473 2 5.12993 1.70998 6.8399 0.574678 -2.18154 -1.22745
474 1 5.98492 2.56496 6.8399 0.519845 -0.30749 -0.725822
475 2 5.98492 1.70998 7.69489 1.15306 -0.166073 0.328375
476 1 5.12993 2.56496 7.69489 1.49416 -0.150937 -0.569251
477 1 5.12993 1.70998 8.54988 0.254723 -0.361891 1.50767
478 2 5.98492 2.56496 8.54988 -1.24306 -1.73359 0.42566
479 2 5.98492 1.70998 9.40487 0.227179 -1.48022 -2.4144
480 2 5.12993 2.56496 9.40487 0.403244 -0.224606 -0.068834
481 2 5.12993 3.41995 0 0.0679146 -0.844413 -0.223342
482 1 5.98492 4.27494 0 0.227287 -1.31286 -0.725913
483 1 5.98492 3.41995 0.854988 1.75039 -0.586931 0.330378
484 2 5.12993 4.27494 0.854988 1.43186 0.223478 -0.556921
485 1 5.12993 3.41995 1.70998 0.545226 0.243759 -0.703339
486 2 5.98492 4.27494 1.70998 -0.833614 -1.35075 1.36023
487 2 5.98492 3.41995 2.56496 -0.700042 0.15419 -1.94955
488 1 5.12993 4.27494 2.56496 -0.797041 -0.0978969 -0.0578292
489 1 5.12993 3.41995 3.41995 0.0508807 -0.222234 0.731011
490 2 5.98492 4.27494 3.41995 -0.711176 1.93051 -1.44096
491 1 5.98492 3.41995 4.27494 -0.00603566 0.694219 -0.763877
492 2 5.12993 4.27494 4.27494 0.272983 -1.04051 0.835615
493 2 5.12993 3.41995 5.12993 0.82444 0.339642 1.05179
494 2 5.98492 4.27494 5.12993 -1.17605 -2.60275 -0.61913
495 1 5.98492 3.41995 5.98492 0.0105211 0.630868 1.28958
496 2 5.12993 4.27494 5.98492 0.120313 -0.272906 -0.126979
497 1 5.12993 3.41995 6.8399 0.88677 -0.507778 0.732437
498 2 5.98492 4.27494 6.8399 -0.964249 0.863557 -0.74766
499 2 5.98492 3.41995 7.69489 -0.799759 -0.988362 0.441894
500 1 5.12993 4.27494 7.69489 -1.36598 0.584975 0.173648
501 1 5.12993 3.41995 8.54988 -1.21087 0.0269347 -1.145
502 1 5.98492 4.27494 8.54988 -0.468607 0.300049 -0.658078
503 2 5.98492 3.41995 9.40487 -2.03782 1.61154 0.751298
504 2 5.12993 4.27494 9.40487 -0.124992 1.09127 -0.575189
505 1 5.12993 5.12993 0 0.116729 1.7789 1.10591
506 2 5.98492 5.98492 0 -1.37762 0.196998 0.402963
507 1 5.98492 5.12993 0.854988 -0.20044 -1.66085 -0.668893
508 1 5.12993 5.98492 0.854988 1.34378 0.386581 -1.19117
509 1 5.12993 5.12993 1.70998 -0.402616 -1.27217 -0.822424
510 2 5.98492 5.98492 1.70998 0.275424 0.231822 1.0318
511 1 5.98492 5.12993 2.56496 2.01481 -2.45603 0.533872
512 1 5.12993 5.98492 2.56496 0.535662 -0.583022 0.625042
513 1 5.12993 5.12993 3.41995 -0.651172 -0.440623 0.366381
514 2 5.98492 5.98492 3.41995 1.07589 1.44609 -0.141658
515 2 5.98492 5.12993 4.27494 0.303223 -1.41 -1.67895
516 1 5.12993 5.98492 4.27494 1.11282 1.04115 0.945163
517 2 5.12993 5.12993 5.12993 -0.276149 -0.245938 -0.913865
518 2 5.98492 5.98492 5.12993 -1.00445 -0.861772 0.0501059
519 2 5.98492 5.12993 5.98492 -0.848025 -0.878532 0.299004
520 1 5.12993 5.98492 5.98492 1.21266 -1.2853 -2.33686
521 2 5.12993 5.12993 6.8399 -0.665413 1.1345 -1.9225
522 2 5.98492 5.98492 6.8399 0.201559 1.19156 0.951983
523 1 5.98492 5.12993 7.69489 -0.213533 -0.32861 -0.771903
524 1 5.12993 5.98492 7.69489 1.6091 -0.111927 1.34521
525 2 5.12993 5.12993 8.54988 0.460509 0.689944 -1.55781
526 1 5.98492 5.98492 8.54988 0.344134 0.611481 0.101255
527 1 5.98492 5.12993 9.40487 1.76789 -0.126409 0.190208
528 2 5.12993 5.98492 9.40487 -0.561566 -0.648802 1.94421
529 2 5.12993 6.8399 0 0.344567 -1.00325 0.334855
530 2 5.98492 7.69489 0 -1.69009 -1.21133 1.58071
531 2 5.98492 6.8399 0.854988 -2.20138 0.854194 0.408871
532 1 5.12993 7.69489 0.854988 -0.355477 0.970435 0.521513
533 1 5.12993 6.8399 1.70998 -0.184655 -0.438991 -0.977657
534 1 5.98492 7.69489 1.70998 -1.86507 0.723585 -0.822646
535 2 5.98492 6.8399 2.56496 -1.08714 -0.169355 0.341252