
# -------------------------
# System construction
# -------------------------

lattice         fcc ${rho}
lattice         fcc 0.8
Lattice spacing in x,y,z = 1.7099759 1.7099759 1.7099759
region          RBOX block 0 ${ncell} 0 ${ncell} 0 ${ncell} units lattice
region          RBOX block 0 8 0 ${ncell} 0 ${ncell} units lattice
region          RBOX block 0 8 0 8 0 ${ncell} units lattice
region          RBOX block 0 8 0 8 0 8 units lattice
create_box      1 RBOX
Created orthogonal box = (0 0 0) to (13.679808 13.679808 13.679808)
  1 by 1 by 1 MPI processor grid
create_atoms    1 box
Created 2048 atoms
  using lattice units in orthogonal box = (0 0 0) to (13.679808 13.679808 13.679808)
  create_atoms CPU = 0.000 seconds
mass            1 ${mass}
mass            1 1

pair_style      lj/cut ${rc}
pair_style      lj/cut 2.5
pair_coeff      1 1 ${eps} ${sig} ${rc}
pair_coeff      1 1 1 ${sig} ${rc}
pair_coeff      1 1 1 1 ${rc}
pair_coeff      1 1 1 1 2.5
pair_modify     shift yes

neighbor        0.3 bin
neigh_modify    every 1 delay 0 check yes

thermo          ${thermo_every}
thermo          500
thermo_style    custom step temp pe ke etotal pxx pyy pzz density lx ly lz
thermo_modify   flush yes

dump            DALL all custom ${dump_every} ${fdump_all} id type x y z
dump            DALL all custom 100 ${fdump_all} id type x y z
dump            DALL all custom 100 o.dump.all.lammpstrj id type x y z
dump_modify     DALL sort id

minimize        1.0e-6 1.0e-8 ${nmin} 100000
minimize        1.0e-6 1.0e-8 10000 100000
Generated 0 of 0 mixed pair_coeff terms from geometric mixing rule
Neighbor list info ...
  update: every = 1 steps, delay = 0 steps, check = yes
  max neighbors/atom: 2000, page size: 100000
  master list distance cutoff = 2.8
  ghost atom cutoff = 2.8
  binsize = 1.4, bins = 10 10 10
  1 neighbor lists, perpetual/occasional/extra = 1 0 0
  (1) pair lj/cut, perpetual
      attributes: half, newton on
      pair build: half/bin/atomonly/newton
      stencil: half/bin/3d
      bin: standard
Per MPI rank memory allocation (min/avg/max) = 4.372 | 4.372 | 4.372 Mbytes
   Step          Temp          PotEng         KinEng         TotEng          Pxx            Pyy            Pzz          Density           Lx             Ly             Lz      
         0   0             -5.9241904      0             -5.9241904     -6.2089666     -6.2089666     -6.2089666      0.8            13.679808      13.679808      13.679808    
         1   0             -5.9241904      0             -5.9241904     -6.2089666     -6.2089666     -6.2089666      0.8            13.679808      13.679808      13.679808    
Loop time of 0.0061085 on 1 procs for 1 steps with 2048 atoms

109.1% CPU use with 1 MPI tasks x no OpenMP threads

Minimization stats:
  Stopping criterion = energy tolerance
  Energy initial, next-to-last, final = 
      -5.9241904413907   -5.9241904413907   -5.9241904413907
  Force two-norm initial, final = 9.1774629e-13 9.1518702e-13
  Force max component initial, final = 2.9087843e-14 2.9087843e-14
  Final line search alpha, max atom move = 1 2.9087843e-14
  Iterations, force evaluations = 1 2

MPI task timing breakdown:
Section |  min time  |  avg time  |  max time  |%varavg| %total
---------------------------------------------------------------
Pair    | 0.0037583  | 0.0037583  | 0.0037583  |   0.0 | 61.53
Neigh   | 0          | 0          | 0          |   0.0 |  0.00
Comm    | 6.5035e-05 | 6.5035e-05 | 6.5035e-05 |   0.0 |  1.06
Output  | 0          | 0          | 0          |   0.0 |  0.00
Modify  | 0          | 0          | 0          |   0.0 |  0.00
Other   |            | 0.002285   |            |       | 37.41

Nlocal:           2048 ave        2048 max        2048 min
Histogram: 1 0 0 0 0 0 0 0 0 0
Nghost:           4035 ave        4035 max        4035 min
Histogram: 1 0 0 0 0 0 0 0 0 0
Neighs:          79872 ave       79872 max       79872 min
Histogram: 1 0 0 0 0 0 0 0 0 0

Total # of neighbors = 79872
Ave neighs/atom = 39
Neighbor list builds = 0
Dangerous builds = 0
velocity        all create ${temp_hi} ${seed} mom yes rot no dist gaussian
velocity        all create 1 ${seed} mom yes rot no dist gaussian
velocity        all create 1 12345 mom yes rot no dist gaussian
timestep        ${dt}
timestep        0.005

# ============================================================
# 1. NVE: constant N, V, E
# ============================================================
# Energy should be conserved up to integration error.

print           "Starting NVE run"
Starting NVE run
run             0
WARNING: No fixes with time integration, atoms won't move
For more information see https://docs.lammps.org/err0028 (../verlet.cpp:60)
Generated 0 of 0 mixed pair_coeff terms from geometric mixing rule
Per MPI rank memory allocation (min/avg/max) = 4.677 | 4.677 | 4.677 Mbytes
   Step          Temp          PotEng         KinEng         TotEng          Pxx            Pyy            Pzz          Density           Lx             Ly             Lz      
         1   1             -5.9241904      1.4992676     -4.4249229     -5.4017477     -5.418715      -5.4076089      0.8            13.679808      13.679808      13.679808    
Loop time of 7.98e-07 on 1 procs for 0 steps with 2048 atoms

375.9% CPU use with 1 MPI tasks x no OpenMP threads

MPI task timing breakdown:
Section |  min time  |  avg time  |  max time  |%varavg| %total
---------------------------------------------------------------
Pair    | 0          | 0          | 0          |   0.0 |  0.00
Neigh   | 0          | 0          | 0          |   0.0 |  0.00
Comm    | 0          | 0          | 0          |   0.0 |  0.00
Output  | 0          | 0          | 0          |   0.0 |  0.00
Modify  | 0          | 0          | 0          |   0.0 |  0.00
Other   |            | 7.98e-07   |            |       |100.00

Nlocal:           2048 ave        2048 max        2048 min
Histogram: 1 0 0 0 0 0 0 0 0 0
Nghost:           4035 ave        4035 max        4035 min
Histogram: 1 0 0 0 0 0 0 0 0 0
Neighs:          79872 ave       79872 max       79872 min
Histogram: 1 0 0 0 0 0 0 0 0 0

Total # of neighbors = 79872
Ave neighs/atom = 39
Neighbor list builds = 0
Dangerous builds = 0

fix             FNVE all nve
run             ${nrun}
run             20000
Generated 0 of 0 mixed pair_coeff terms from geometric mixing rule
Per MPI rank memory allocation (min/avg/max) = 4.677 | 4.677 | 4.677 Mbytes
   Step          Temp          PotEng         KinEng         TotEng          Pxx            Pyy            Pzz          Density           Lx             Ly             Lz      
         1   1             -5.9241904      1.4992676     -4.4249229     -5.4017477     -5.418715      -5.4076089      0.8            13.679808      13.679808      13.679808    
       500   0.5302387     -5.2199562      0.79496969    -4.4249865     -1.223506      -1.251824      -1.2115005      0.8            13.679808      13.679808      13.679808    
      1000   0.50669489    -5.1846534      0.75967122    -4.4249822     -1.0627225     -0.99090526    -1.1334671      0.8            13.679808      13.679808      13.679808    
      1500   0.50577745    -5.1833211      0.75829573    -4.4250253     -1.017412      -1.0964205     -0.95773136     0.8            13.679808      13.679808      13.679808    
      2000   0.50181793    -5.1773399      0.75235935    -4.4249805     -0.89511482    -0.98566081    -0.90586404     0.8            13.679808      13.679808      13.679808    
      2500   0.49903609    -5.1732039      0.74818864    -4.4250153     -0.94816141    -0.92579328    -0.93454494     0.8            13.679808      13.679808      13.679808    
      3000   0.51406556    -5.1957591      0.77072183    -4.4250372     -1.1559166     -0.97801748    -1.1272959      0.8            13.679808      13.679808      13.679808    
      3500   0.50324582    -5.179538       0.75450014    -4.4250378     -1.0245051     -1.0619759     -0.95091679     0.8            13.679808      13.679808      13.679808    
      4000   0.50242147    -5.1782991      0.75326421    -4.4250349     -0.99729463    -1.1962502     -0.8328703      0.8            13.679808      13.679808      13.679808    
      4500   0.49980828    -5.1743532      0.74934635    -4.4250068     -0.9944565     -0.98837615    -0.97429328     0.8            13.679808      13.679808      13.679808    
      5000   0.50374122    -5.1802425      0.75524288    -4.4249997     -0.87143399    -1.0799889     -1.0905607      0.8            13.679808      13.679808      13.679808    
      5500   0.49903252    -5.1731714      0.74818328    -4.4249881     -1.1403859     -0.97361581    -1.0350086      0.8            13.679808      13.679808      13.679808    
      6000   0.49854754    -5.1724895      0.74745616    -4.4250333     -1.0175255     -0.93646658    -0.85724281     0.8            13.679808      13.679808      13.679808    
      6500   0.50522152    -5.1824638      0.75746224    -4.4250016     -0.93619385    -0.98752641    -1.1794889      0.8            13.679808      13.679808      13.679808    
      7000   0.51030638    -5.1900709      0.76508581    -4.4249851     -1.0378473     -1.0650337     -1.0039419      0.8            13.679808      13.679808      13.679808    
      7500   0.49750278    -5.170841       0.7458898     -4.4249512     -0.87974591    -0.99454489    -0.88360969     0.8            13.679808      13.679808      13.679808    
      8000   0.50459632    -5.1815133      0.7565249     -4.4249884     -1.0163158     -0.9537337     -1.0084815      0.8            13.679808      13.679808      13.679808    
      8500   0.50969889    -5.1891653      0.76417502    -4.4249903     -1.0357359     -1.0778925     -1.0072266      0.8            13.679808      13.679808      13.679808    
      9000   0.49924057    -5.1734152      0.7484952     -4.42492       -0.87025556    -0.99373557    -0.8960938      0.8            13.679808      13.679808      13.679808    
      9500   0.50461693    -5.1815086      0.7565558     -4.4249528     -0.90526011    -1.0181625     -1.0776003      0.8            13.679808      13.679808      13.679808    
     10000   0.50629675    -5.1840309      0.75907431    -4.4249565     -1.0337964     -0.92022132    -1.0143869      0.8            13.679808      13.679808      13.679808    
     10500   0.52223604    -5.2079005      0.78297156    -4.4249289     -1.1208404     -0.98752906    -1.1419722      0.8            13.679808      13.679808      13.679808    
     11000   0.51145769    -5.1917336      0.76681193    -4.4249217     -0.99811765    -1.0105399     -1.0625178      0.8            13.679808      13.679808      13.679808    
     11500   0.49502827    -5.1671327      0.74217983    -4.4249529     -0.98611923    -1.0580159     -1.0206131      0.8            13.679808      13.679808      13.679808    
     12000   0.49986429    -5.1743713      0.74943032    -4.424941      -0.77566569    -0.91530064    -1.0572484      0.8            13.679808      13.679808      13.679808    
     12500   0.50244155    -5.1782368      0.75329432    -4.4249425     -0.91003185    -0.98857278    -0.91902983     0.8            13.679808      13.679808      13.679808    
     13000   0.50761389    -5.1860269      0.76104905    -4.4249778     -1.0120638     -1.0516725     -1.1127835      0.8            13.679808      13.679808      13.679808    
     13500   0.50286787    -5.1788769      0.75393349    -4.4249434     -0.99027161    -1.0516874     -0.91874124     0.8            13.679808      13.679808      13.679808    
     14000   0.51007951    -5.1897283      0.76474567    -4.4249826     -0.96462952    -1.0323897     -0.98127805     0.8            13.679808      13.679808      13.679808    
     14500   0.49917138    -5.1733216      0.74839147    -4.4249302     -1.0551395     -1.0029252     -0.95135528     0.8            13.679808      13.679808      13.679808    
     15000   0.50365226    -5.180048       0.7551095     -4.4249385     -1.1100534     -0.96636682    -1.0018778      0.8            13.679808      13.679808      13.679808    
     15500   0.49795655    -5.1715092      0.74657011    -4.4249391     -0.95371155    -0.93117218    -0.96049231     0.8            13.679808      13.679808      13.679808    
     16000   0.51051378    -5.1903318      0.76539676    -4.424935      -0.93261514    -1.1066964     -1.1123437      0.8            13.679808      13.679808      13.679808    
     16500   0.49599171    -5.1685283      0.74362429    -4.424904      -0.92817546    -0.99051013    -0.92697913     0.8            13.679808      13.679808      13.679808    
     17000   0.50370713    -5.180175       0.75519177    -4.4249832     -0.98343412    -0.88680957    -0.91111844     0.8            13.679808      13.679808      13.679808    
     17500   0.50462344    -5.1814789      0.75656557    -4.4249133     -1.0329128     -0.91131791    -1.0426928      0.8            13.679808      13.679808      13.679808    
     18000   0.50795529    -5.1865003      0.76156089    -4.4249394     -0.84460907    -1.2114489     -1.0469788      0.8            13.679808      13.679808      13.679808    
     18500   0.50392867    -5.1804397      0.75552391    -4.4249158     -0.97260498    -1.0772471     -0.95685706     0.8            13.679808      13.679808      13.679808    
     19000   0.50264724    -5.1785218      0.75360271    -4.4249191     -0.92854572    -1.1036161     -0.99909414     0.8            13.679808      13.679808      13.679808    
     19500   0.49824987    -5.1718886      0.74700988    -4.4248787     -0.89107728    -0.98853649    -1.0375473      0.8            13.679808      13.679808      13.679808    
     20000   0.49933484    -5.1735178      0.74863653    -4.4248813     -0.97493064    -0.96958427    -0.91643485     0.8            13.679808      13.679808      13.679808    
     20001   0.4989209     -5.1728982      0.74801593    -4.4248822     -0.98159037    -0.95219808    -0.91552911     0.8            13.679808      13.679808      13.679808    
Loop time of 12.2693 on 1 procs for 20000 steps with 2048 atoms

Performance: 704193.917 tau/day, 1630.079 timesteps/s, 3.338 Matom-step/s
109.0% CPU use with 1 MPI tasks x no OpenMP threads

MPI task timing breakdown:
Section |  min time  |  avg time  |  max time  |%varavg| %total
---------------------------------------------------------------
Pair    | 8.0245     | 8.0245     | 8.0245     |   0.0 | 65.40
Neigh   | 3.5634     | 3.5634     | 3.5634     |   0.0 | 29.04
Comm    | 0.23466    | 0.23466    | 0.23466    |   0.0 |  1.91
Output  | 0.18563    | 0.18563    | 0.18563    |   0.0 |  1.51
Modify  | 0.16547    | 0.16547    | 0.16547    |   0.0 |  1.35
Other   |            | 0.0957     |            |       |  0.78

Nlocal:           2048 ave        2048 max        2048 min
Histogram: 1 0 0 0 0 0 0 0 0 0
Nghost:           3686 ave        3686 max        3686 min
Histogram: 1 0 0 0 0 0 0 0 0 0
Neighs:          72571 ave       72571 max       72571 min
Histogram: 1 0 0 0 0 0 0 0 0 0

Total # of neighbors = 72571
Ave neighs/atom = 35.435059
Neighbor list builds = 1921
Dangerous builds = 0
unfix           FNVE

# ============================================================
# 2. NVT: constant N, V, T
# ============================================================
# The thermostat exchanges energy with the system.

print           "Starting NVT run at high temperature"
Starting NVT run at high temperature

fix             FNVT all nvt temp ${temp_hi} ${temp_hi} ${tdamp}
fix             FNVT all nvt temp 1 ${temp_hi} ${tdamp}
fix             FNVT all nvt temp 1 1 ${tdamp}
fix             FNVT all nvt temp 1 1 0.5
run             ${nrun}
run             20000
Generated 0 of 0 mixed pair_coeff terms from geometric mixing rule
Per MPI rank memory allocation (min/avg/max) = 4.677 | 4.677 | 4.677 Mbytes
   Step          Temp          PotEng         KinEng         TotEng          Pxx            Pyy            Pzz          Density           Lx             Ly             Lz      
     20001   0.4989209     -5.1728982      0.74801593    -4.4248822     -0.98159037    -0.95219808    -0.91552911     0.8            13.679808      13.679808      13.679808    
     20500   0.9539984     -4.7633271      1.4302989     -3.3330282      1.2265258      1.3777579      1.2473181      0.8            13.679808      13.679808      13.679808    
     21000   0.93703016    -4.6751355      1.4048589     -3.2702766      1.7588683      1.7920685      1.6639682      0.8            13.679808      13.679808      13.679808    
     21500   0.95997562    -4.6834624      1.4392603     -3.244202       1.643538       1.5921774      1.8815504      0.8            13.679808      13.679808      13.679808    
     22000   0.98315476    -4.6818365      1.4740121     -3.2078244      1.7212358      1.7061503      1.6933685      0.8            13.679808      13.679808      13.679808    
     22500   0.99992004    -4.706759       1.4991477     -3.2076113      1.6525589      1.7330841      1.4771509      0.8            13.679808      13.679808      13.679808    
     23000   0.99859216    -4.6476441      1.4971568     -3.1504873      2.0297801      1.6892382      1.7438172      0.8            13.679808      13.679808      13.679808    
     23500   0.99075106    -4.6742443      1.4854009     -3.1888434      1.711967       1.7724256      1.8217058      0.8            13.679808      13.679808      13.679808    
     24000   0.98829899    -4.7050356      1.4817246     -3.223311       1.7443847      1.5633535      1.6455839      0.8            13.679808      13.679808      13.679808    
     24500   0.99702645    -4.7378713      1.4948094     -3.2430618      1.4677908      1.3544829      1.5969966      0.8            13.679808      13.679808      13.679808    
     25000   0.99372636    -4.7053427      1.4898617     -3.215481       1.7565042      1.529203       1.7373561      0.8            13.679808      13.679808      13.679808    
