ITEM: TIMESTEP
0
ITEM: NUMBER OF ATOMS
864
ITEM: BOX BOUNDS pp pp pp
0.0000000000000000e+00 1.0259855679999999e+01
0.0000000000000000e+00 1.0259855679999999e+01
0.0000000000000000e+00 1.0259855679999999e+01
ITEM: ATOMS id type x y z
1 2 0 0 0
2 2 0.854988 0.854988 0
3 1 0.854988 0 0.854988
4 1 0 0.854988 0.854988
5 2 0 0 1.70998
6 2 0.854988 0.854988 1.70998
7 1 0.854988 0 2.56496
8 2 0 0.854988 2.56496
9 1 0 0 3.41995
10 1 0.854988 0.854988 3.41995
11 2 0.854988 0 4.27494
12 1 0 0.854988 4.27494
13 1 0 0 5.12993
14 2 0.854988 0.854988 5.12993
15 2 0.854988 0 5.98492
16 1 0 0.854988 5.98492
17 1 0 0 6.8399
18 2 0.854988 0.854988 6.8399
19 1 0.854988 0 7.69489
20 2 0 0.854988 7.69489
21 2 0 0 8.54988
22 2 0.854988 0.854988 8.54988
23 2 0.854988 0 9.40487
24 2 0 0.854988 9.40487
25 2 0 1.70998 0
26 1 0.854988 2.56496 0
27 2 0.854988 1.70998 0.854988
28 2 0 2.56496 0.854988
29 2 0 1.70998 1.70998
30 1 0.854988 2.56496 1.70998
31 1 0.854988 1.70998 2.56496
32 1 0 2.56496 2.56496
33 1 0 1.70998 3.41995
34 1 0.854988 2.56496 3.41995
35 1 0.854988 1.70998 4.27494
36 1 0 2.56496 4.27494
37 1 0 1.70998 5.12993
38 1 0.854988 2.56496 5.12993
39 2 0.854988 1.70998 5.98492
40 2 0 2.56496 5.98492
41 2 0 1.70998 6.8399
42 1 0.854988 2.56496 6.8399
43 2 0.854988 1.70998 7.69489
44 1 0 2.56496 7.69489
45 2 0 1.70998 8.54988
46 2 0.854988 2.56496 8.54988
47 2 0.854988 1.70998 9.40487
48 2 0 2.56496 9.40487
49 2 0 3.41995 0
50 1 0.854988 4.27494 0
51 2 0.854988 3.41995 0.854988
52 2 0 4.27494 0.854988
53 1 0 3.41995 1.70998
54 2 0.854988 4.27494 1.70998
55 2 0.854988 3.41995 2.56496
56 2 0 4.27494 2.56496
57 2 0 3.41995 3.41995
58 2 0.854988 4.27494 3.41995
59 2 0.854988 3.41995 4.27494
60 2 0 4.27494 4.27494
61 2 0 3.41995 5.12993
62 2 0.854988 4.27494 5.12993
63 2 0.854988 3.41995 5.98492
64 2 0 4.27494 5.98492
65 2 0 3.41995 6.8399
66 2 0.854988 4.27494 6.8399
67 2 0.854988 3.41995 7.69489
68 2 0 4.27494 7.69489
69 1 0 3.41995 8.54988
70 2 0.854988 4.27494 8.54988
71 1 0.854988 3.41995 9.40487
72 2 0 4.27494 9.40487
73 1 0 5.12993 0
74 1 0.854988 5.98492 0
75 2 0.854988 5.12993 0.854988
76 1 0 5.98492 0.854988
77 2 0 5.12993 1.70998
78 2 0.854988 5.98492 1.70998
79 1 0.854988 5.12993 2.56496
80 1 0 5.98492 2.56496
81 1 0 5.12993 3.41995
82 2 0.854988 5.98492 3.41995
83 2 0.854988 5.12993 4.27494
84 1 0 5.98492 4.27494
85 2 0 5.12993 5.12993
86 1 0.854988 5.98492 5.12993
87 2 0.854988 5.12993 5.98492
88 1 0 5.98492 5.98492
89 2 0 5.12993 6.8399
90 2 0.854988 5.98492 6.8399
91 2 0.854988 5.12993 7.69489
92 2 0 5.98492 7.69489
93 1 0 5.12993 8.54988
94 1 0.854988 5.98492 8.54988
95 2 0.854988 5.12993 9.40487
96 2 0 5.98492 9.40487
97 2 0 6.8399 0
98 1 0.854988 7.69489 0
99 2 0.854988 6.8399 0.854988
100 2 0 7.69489 0.854988
101 2 0 6.8399 1.70998
102 2 0.854988 7.69489 1.70998
103 1 0.854988 6.8399 2.56496
104 2 0 7.69489 2.56496
105 1 0 6.8399 3.41995
106 2 0.854988 7.69489 3.41995
107 1 0.854988 6.8399 4.27494
108 2 0 7.69489 4.27494
109 2 0 6.8399 5.12993
110 2 0.854988 7.69489 5.12993
111 2 0.854988 6.8399 5.98492
112 2 0 7.69489 5.98492
113 1 0 6.8399 6.8399
114 1 0.854988 7.69489 6.8399
115 2 0.854988 6.8399 7.69489
116 1 0 7.69489 7.69489
117 2 0 6.8399 8.54988
118 1 0.854988 7.69489 8.54988
119 1 0.854988 6.8399 9.40487
120 2 0 7.69489 9.40487
121 2 0 8.54988 0
122 2 0.854988 9.40487 0
123 2 0.854988 8.54988 0.854988
124 1 0 9.40487 0.854988
125 2 0 8.54988 1.70998
126 2 0.854988 9.40487 1.70998
127 1 0.854988 8.54988 2.56496
128 2 0 9.40487 2.56496
129 2 0 8.54988 3.41995
130 2 0.854988 9.40487 3.41995
131 1 0.854988 8.54988 4.27494
132 1 0 9.40487 4.27494
133 1 0 8.54988 5.12993
134 2 0.854988 9.40487 5.12993
135 1 0.854988 8.54988 5.98492
136 2 0 9.40487 5.98492
137 1 0 8.54988 6.8399
138 1 0.854988 9.40487 6.8399
139 1 0.854988 8.54988 7.69489
140 1 0 9.40487 7.69489
141 2 0 8.54988 8.54988
142 2 0.854988 9.40487 8.54988
143 1 0.854988 8.54988 9.40487
144 1 0 9.40487 9.40487
145 2 1.70998 0 0
146 2 2.56496 0.854988 0
147 1 2.56496 0 0.854988
148 2 1.70998 0.854988 0.854988
149 2 1.70998 0 1.70998
150 1 2.56496 0.854988 1.70998
151 1 2.56496 0 2.56496
152 1 1.70998 0.854988 2.56496
153 2 1.70998 0 3.41995
154 2 2.56496 0.854988 3.41995
155 1 2.56496 0 4.27494
156 2 1.70998 0.854988 4.27494
157 2 1.70998 0 5.12993
158 2 2.56496 0.854988 5.12993
159 2 2.56496 0 5.98492
160 1 1.70998 0.854988 5.98492
161 1 1.70998 0 6.8399
162 1 2.56496 0.854988 6.8399
163 1 2.56496 0 7.69489
164 1 1.70998 0.854988 7.69489
165 1 1.70998 0 8.54988
166 2 2.56496 0.854988 8.54988
167 1 2.56496 0 9.40487
168 1 1.70998 0.854988 9.40487
169 1 1.70998 1.70998 0
170 1 2.56496 2.56496 0
171 1 2.56496 1.70998 0.854988
172 1 1.70998 2.56496 0.854988
173 1 1.70998 1.70998 1.70998
174 1 2.56496 2.56496 1.70998
175 2 2.56496 1.70998 2.56496
176 2 1.70998 2.56496 2.56496
177 2 1.70998 1.70998 3.41995
178 1 2.56496 2.56496 3.41995
179 2 2.56496 1.70998 4.27494
180 1 1.70998 2.56496 4.27494
181 2 1.70998 1.70998 5.12993
182 2 2.56496 2.56496 5.12993
183 2 2.56496 1.70998 5.98492
184 1 1.70998 2.56496 5.98492
185 2 1.70998 1.70998 6.8399
186 2 2.56496 2.56496 6.8399
187 1 2.56496 1.70998 7.69489
188 1 1.70998 2.56496 7.69489
189 2 1.70998 1.70998 8.54988
190 2 2.56496 2.56496 8.54988
191 1 2.56496 1.70998 9.40487
192 2 1.70998 2.56496 9.40487
193 1 1.70998 3.41995 0
194 1 2.56496 4.27494 0
195 2 2.56496 3.41995 0.854988
196 2 1.70998 4.27494 0.854988
197 2 1.70998 3.41995 1.70998
198 2 2.56496 4.27494 1.70998
199 1 2.56496 3.41995 2.56496
200 2 1.70998 4.27494 2.56496
201 1 1.70998 3.41995 3.41995
202 2 2.56496 4.27494 3.41995
203 2 2.56496 3.41995 4.27494
204 2 1.70998 4.27494 4.27494
205 1 1.70998 3.41995 5.12993
206 2 2.56496 4.27494 5.12993
207 2 2.56496 3.41995 5.98492
208 2 1.70998 4.27494 5.98492
209 1 1.70998 3.41995 6.8399
210 1 2.56496 4.27494 6.8399
211 2 2.56496 3.41995 7.69489
212 2 1.70998 4.27494 7.69489
213 2 1.70998 3.41995 8.54988
214 2 2.56496 4.27494 8.54988
215 2 2.56496 3.41995 9.40487
216 2 1.70998 4.27494 9.40487
217 2 1.70998 5.12993 0
218 1 2.56496 5.98492 0
219 1 2.56496 5.12993 0.854988
220 2 1.70998 5.98492 0.854988
221 2 1.70998 5.12993 1.70998
222 2 2.56496 5.98492 1.70998
223 1 2.56496 5.12993 2.56496
224 1 1.70998 5.98492 2.56496
225 1 1.70998 5.12993 3.41995
226 1 2.56496 5.98492 3.41995
227 1 2.56496 5.12993 4.27494
228 1 1.70998 5.98492 4.27494
229 2 1.70998 5.12993 5.12993
230 2 2.56496 5.98492 5.12993
231 2 2.56496 5.12993 5.98492
232 1 1.70998 5.98492 5.98492
233 1 1.70998 5.12993 6.8399
234 2 2.56496 5.98492 6.8399
235 1 2.56496 5.12993 7.69489
236 1 1.70998 5.98492 7.69489
237 2 1.70998 5.12993 8.54988
238 2 2.56496 5.98492 8.54988
239 1 2.56496 5.12993 9.40487
240 1 1.70998 5.98492 9.40487
241 1 1.70998 6.8399 0
242 1 2.56496 7.69489 0
243 1 2.56496 6.8399 0.854988
244 1 1.70998 7.69489 0.854988
245 1 1.70998 6.8399 1.70998
246 2 2.56496 7.69489 1.70998
247 2 2.56496 6.8399 2.56496
248 1 1.70998 7.69489 2.56496
249 2 1.70998 6.8399 3.41995
250 1 2.56496 7.69489 3.41995
251 2 2.56496 6.8399 4.27494
252 2 1.70998 7.69489 4.27494
253 2 1.70998 6.8399 5.12993
254 1 2.56496 7.69489 5.12993
255 2 2.56496 6.8399 5.98492
256 2 1.70998 7.69489 5.98492
257 2 1.70998 6.8399 6.8399
258 1 2.56496 7.69489 6.8399
259 1 2.56496 6.8399 7.69489
260 1 1.70998 7.69489 7.69489
261 2 1.70998 6.8399 8.54988
262 1 2.56496 7.69489 8.54988
263 2 2.56496 6.8399 9.40487
264 1 1.70998 7.69489 9.40487
265 1 1.70998 8.54988 0
266 2 2.56496 9.40487 0
267 1 2.56496 8.54988 0.854988
268 2 1.70998 9.40487 0.854988
269 2 1.70998 8.54988 1.70998
270 1 2.56496 9.40487 1.70998
271 2 2.56496 8.54988 2.56496
272 1 1.70998 9.40487 2.56496
273 2 1.70998 8.54988 3.41995
274 1 2.56496 9.40487 3.41995
275 2 2.56496 8.54988 4.27494
276 2 1.70998 9.40487 4.27494
277 2 1.70998 8.54988 5.12993
278 2 2.56496 9.40487 5.12993
279 2 2.56496 8.54988 5.98492
280 2 1.70998 9.40487 5.98492
281 2 1.70998 8.54988 6.8399
282 1 2.56496 9.40487 6.8399
283 1 2.56496 8.54988 7.69489
284 1 1.70998 9.40487 7.69489
285 1 1.70998 8.54988 8.54988
286 1 2.56496 9.40487 8.54988
287 1 2.56496 8.54988 9.40487
288 2 1.70998 9.40487 9.40487
289 2 3.41995 0 0
290 2 4.27494 0.854988 0
291 1 4.27494 0 0.854988
292 2 3.41995 0.854988 0.854988
293 2 3.41995 0 1.70998
294 1 4.27494 0.854988 1.70998
295 1 4.27494 0 2.56496
296 1 3.41995 0.854988 2.56496
297 2 3.41995 0 3.41995
298 2 4.27494 0.854988 3.41995
299 2 4.27494 0 4.27494
300 1 3.41995 0.854988 4.27494
301 2 3.41995 0 5.12993
302 1 4.27494 0.854988 5.12993
303 2 4.27494 0 5.98492
304 1 3.41995 0.854988 5.98492
305 2 3.41995 0 6.8399
306 2 4.27494 0.854988 6.8399
307 2 4.27494 0 7.69489
308 1 3.41995 0.854988 7.69489
309 1 3.41995 0 8.54988
310 2 4.27494 0.854988 8.54988
311 2 4.27494 0 9.40487
312 1 3.41995 0.854988 9.40487
313 1 3.41995 1.70998 0
314 1 4.27494 2.56496 0
315 1 4.27494 1.70998 0.854988
316 1 3.41995 2.56496 0.854988
317 1 3.41995 1.70998 1.70998
318 2 4.27494 2.56496 1.70998
319 2 4.27494 1.70998 2.56496
320 2 3.41995 2.56496 2.56496
321 2 3.41995 1.70998 3.41995
322 2 4.27494 2.56496 3.41995
323 2 4.27494 1.70998 4.27494
324 2 3.41995 2.56496 4.27494
325 2 3.41995 1.70998 5.12993
326 2 4.27494 2.56496 5.12993
327 1 4.27494 1.70998 5.98492
328 2 3.41995 2.56496 5.98492
329 1 3.41995 1.70998 6.8399
330 2 4.27494 2.56496 6.8399
331 1 4.27494 1.70998 7.69489
332 2 3.41995 2.56496 7.69489
333 1 3.41995 1.70998 8.54988
334 2 4.27494 2.56496 8.54988
335 2 4.27494 1.70998 9.40487
336 2 3.41995 2.56496 9.40487
337 2 3.41995 3.41995 0
338 1 4.27494 4.27494 0
339 2 4.27494 3.41995 0.854988
340 2 3.41995 4.27494 0.854988
341 1 3.41995 3.41995 1.70998
342 2 4.27494 4.27494 1.70998
343 1 4.27494 3.41995 2.56496
344 1 3.41995 4.27494 2.56496
345 2 3.41995 3.41995 3.41995
346 2 4.27494 4.27494 3.41995
347 2 4.27494 3.41995 4.27494
348 1 3.41995 4.27494 4.27494
349 1 3.41995 3.41995 5.12993
350 2 4.27494 4.27494 5.12993
351 1 4.27494 3.41995 5.98492
352 2 3.41995 4.27494 5.98492
353 2 3.41995 3.41995 6.8399
354 2 4.27494 4.27494 6.8399
355 2 4.27494 3.41995 7.69489
356 1 3.41995 4.27494 7.69489
357 2 3.41995 3.41995 8.54988
358 1 4.27494 4.27494 8.54988
359 2 4.27494 3.41995 9.40487
360 1 3.41995 4.27494 9.40487
361 2 3.41995 5.12993 0
362 1 4.27494 5.98492 0
363 1 4.27494 5.12993 0.854988
364 2 3.41995 5.98492 0.854988
365 2 3.41995 5.12993 1.70998
366 2 4.27494 5.98492 1.70998
367 1 4.27494 5.12993 2.56496
368 2 3.41995 5.98492 2.56496
369 1 3.41995 5.12993 3.41995
370 1 4.27494 5.98492 3.41995
371 2 4.27494 5.12993 4.27494
372 1 3.41995 5.98492 4.27494
373 2 3.41995 5.12993 5.12993
374 2 4.27494 5.98492 5.12993
375 1 4.27494 5.12993 5.98492
376 1 3.41995 5.98492 5.98492
377 1 3.41995 5.12993 6.8399
378 2 4.27494 5.98492 6.8399
379 2 4.27494 5.12993 7.69489
380 2 3.41995 5.98492 7.69489
381 2 3.41995 5.12993 8.54988
382 2 4.27494 5.98492 8.54988
383 2 4.27494 5.12993 9.40487
384 1 3.41995 5.98492 9.40487
385 2 3.41995 6.8399 0
386 2 4.27494 7.69489 0
387 1 4.27494 6.8399 0.854988
388 1 3.41995 7.69489 0.854988
389 1 3.41995 6.8399 1.70998
390 2 4.27494 7.69489 1.70998
391 1 4.27494 6.8399 2.56496
392 2 3.41995 7.69489 2.56496
393 2 3.41995 6.8399 3.41995
394 1 4.27494 7.69489 3.41995
395 1 4.27494 6.8399 4.27494
396 2 3.41995 7.69489 4.27494
397 2 3.41995 6.8399 5.12993
398 1 4.27494 7.69489 5.12993
399 2 4.27494 6.8399 5.98492
400 2 3.41995 7.69489 5.98492
401 1 3.41995 6.8399 6.8399
402 1 4.27494 7.69489 6.8399
403 2 4.27494 6.8399 7.69489
404 1 3.41995 7.69489 7.69489
405 2 3.41995 6.8399 8.54988
406 1 4.27494 7.69489 8.54988
407 2 4.27494 6.8399 9.40487
408 1 3.41995 7.69489 9.40487
409 1 3.41995 8.54988 0
410 1 4.27494 9.40487 0
411 2 4.27494 8.54988 0.854988
412 1 3.41995 9.40487 0.854988
413 2 3.41995 8.54988 1.70998
414 2 4.27494 9.40487 1.70998
415 2 4.27494 8.54988 2.56496
416 1 3.41995 9.40487 2.56496
417 2 3.41995 8.54988 3.41995
418 2 4.27494 9.40487 3.41995
419 2 4.27494 8.54988 4.27494
420 2 3.41995 9.40487 4.27494
421 1 3.41995 8.54988 5.12993
422 2 4.27494 9.40487 5.12993
423 2 4.27494 8.54988 5.98492
424 2 3.41995 9.40487 5.98492
425 2 3.41995 8.54988 6.8399
426 1 4.27494 9.40487 6.8399
427 1 4.27494 8.54988 7.69489
428 1 3.41995 9.40487 7.69489
429 1 3.41995 8.54988 8.54988
430 2 4.27494 9.40487 8.54988
431 1 4.27494 8.54988 9.40487
432 2 3.41995 9.40487 9.40487
433 1 5.12993 0 0
434 2 5.98492 0.854988 0
435 1 5.98492 0 0.854988
436 1 5.12993 0.854988 0.854988
437 2 5.12993 0 1.70998
438 2 5.98492 0.854988 1.70998
439 2 5.98492 0 2.56496
440 2 5.12993 0.854988 2.56496
441 1 5.12993 0 3.41995
442 2 5.98492 0.854988 3.41995
443 1 5.98492 0 4.27494
444 2 5.12993 0.854988 4.27494
445 2 5.12993 0 5.12993
446 1 5.98492 0.854988 5.12993
447 1 5.98492 0 5.98492
448 1 5.12993 0.854988 5.98492
449 2 5.12993 0 6.8399
450 1 5.98492 0.854988 6.8399
451 1 5.98492 0 7.69489
452 2 5.12993 0.854988 7.69489
453 2 5.12993 0 8.54988
454 2 5.98492 0.854988 8.54988
455 1 5.98492 0 9.40487
456 2 5.12993 0.854988 9.40487
457 1 5.12993 1.70998 0
458 1 5.98492 2.56496 0
459 2 5.98492 1.70998 0.854988
460 1 5.12993 2.56496 0.854988
461 1 5.12993 1.70998 1.70998
462 1 5.98492 2.56496 1.70998
463 2 5.98492 1.70998 2.56496
464 2 5.12993 2.56496 2.56496
465 1 5.12993 1.70998 3.41995
466 2 5.98492 2.56496 3.41995
467 2 5.98492 1.70998 4.27494
468 2 5.12993 2.56496 4.27494
469 2 5.12993 1.70998 5.12993
470 1 5.98492 2.56496 5.12993
471 1 5.98492 1.70998 5.98492
472 1 5.12993 2.56496 5.98492
473 2 5.12993 1.70998 6.8399
474 1 5.98492 2.56496 6.8399
475 2 5.98492 1.70998 7.69489
476 1 5.12993 2.56496 7.69489
477 1 5.12993 1.70998 8.54988
478 2 5.98492 2.56496 8.54988
479 2 5.98492 1.70998 9.40487
480 2 5.12993 2.56496 9.40487
481 2 5.12993 3.41995 0
482 1 5.98492 4.27494 0
483 1 5.98492 3.41995 0.854988
484 2 5.12993 4.27494 0.854988
485 1 5.12993 3.41995 1.70998
486 2 5.98492 4.27494 1.70998
487 2 5.98492 3.41995 2.56496
488 1 5.12993 4.27494 2.56496
489 1 5.12993 3.41995 3.41995
490 2 5.98492 4.27494 3.41995
491 1 5.98492 3.41995 4.27494
492 2 5.12993 4.27494 4.27494
493 2 5.12993 3.41995 5.12993
494 2 5.98492 4.27494 5.12993
495 1 5.98492 3.41995 5.98492
496 2 5.12993 4.27494 5.98492
497 1 5.12993 3.41995 6.8399
498 2 5.98492 4.27494 6.8399
499 2 5.98492 3.41995 7.69489
500 1 5.12993 4.27494 7.69489
501 1 5.12993 3.41995 8.54988
502 1 5.98492 4.27494 8.54988
503 2 5.98492 3.41995 9.40487
504 2 5.12993 4.27494 9.40487
505 1 5.12993 5.12993 0
506 2 5.98492 5.98492 0
507 1 5.98492 5.12993 0.854988
508 1 5.12993 5.98492 0.854988
509 1 5.12993 5.12993 1.70998
510 2 5.98492 5.98492 1.70998
511 1 5.98492 5.12993 2.56496
512 1 5.12993 5.98492 2.56496
513 1 5.12993 5.12993 3.41995
514 2 5.98492 5.98492 3.41995
515 2 5.98492 5.12993 4.27494
516 1 5.12993 5.98492 4.27494
517 2 5.12993 5.12993 5.12993
518 2 5.98492 5.98492 5.12993
519 2 5.98492 5.12993 5.98492
520 1 5.12993 5.98492 5.98492
521 2 5.12993 5.12993 6.8399
522 2 5.98492 5.98492 6.8399
523 1 5.98492 5.12993 7.69489
524 1 5.12993 5.98492 7.69489
525 2 5.12993 5.12993 8.54988
526 1 5.98492 5.98492 8.54988
527 1 5.98492 5.12993 9.40487
528 2 5.12993 5.98492 9.40487
529 2 5.12993 6.8399 0
530 2 5.98492 7.69489 0
531 2 5.98492 6.8399 0.854988
532 1 5.12993 7.69489 0.854988
533 1 5.12993 6.8399 1.70998
534 1 5.98492 7.69489 1.70998
535 2 5.98492 6.8399 2.56496
536 1 5.12993 7.69489 2.56496
537 2 5.12993 6.8399 3.41995
538 2 5.98492 7.69489 3.41995
539 2 5.98492 6.8399 4.27494
540 1 5.12993 7.69489 4.27494
541 1 5.12993 6.8399 5.12993
542 2 5.98492 7.69489 5.12993
543 2 5.98492 6.8399 5.98492
544 2 5.12993 7.69489 5.98492
545 2 5.12993 6.8399 6.8399
546 2 5.98492 7.69489 6.8399
547 1 5.98492 6.8399 7.69489
548 1 5.12993 7.69489 7.69489
549 2 5.12993 6.8399 8.54988
550 1 5.98492 7.69489 8.54988
551 1 5.98492 6.8399 9.40487
552 2 5.12993 7.69489 9.40487
553 2 5.12993 8.54988 0
554 1 5.98492 9.40487 0
555 2 5.98492 8.54988 0.854988
556 1 5.12993 9.40487 0.854988
557 1 5.12993 8.54988 1.70998
558 2 5.98492 9.40487 1.70998
559 1 5.98492 8.54988 2.56496
560 1 5.12993 9.40487 2.56496
561 2 5.12993 8.54988 3.41995
562 1 5.98492 9.40487 3.41995
563 2 5.98492 8.54988 4.27494
564 2 5.12993 9.40487 4.27494
565 1 5.12993 8.54988 5.12993
566 1 5.98492 9.40487 5.12993
567 2 5.98492 8.54988 5.98492
568 1 5.12993 9.40487 5.98492
569 1 5.12993 8.54988 6.8399
570 2 5.98492 9.40487 6.8399
571 1 5.98492 8.54988 7.69489
572 1 5.12993 9.40487 7.69489
573 2 5.12993 8.54988 8.54988
574 2 5.98492 9.40487 8.54988
575 2 5.98492 8.54988 9.40487
576 2 5.12993 9.40487 9.40487
577 1 6.8399 0 0
578 2 7.69489 0.854988 0
579 1 7.69489 0 0.854988
580 1 6.8399 0.854988 0.854988
581 2 6.8399 0 1.70998
582 2 7.69489 0.854988 1.70998
583 2 7.69489 0 2.56496
584 1 6.8399 0.854988 2.56496
585 1 6.8399 0 3.41995
586 2 7.69489 0.854988 3.41995
587 2 7.69489 0 4.27494
588 2 6.8399 0.854988 4.27494
589 1 6.8399 0 5.12993
590 2 7.69489 0.854988 5.12993
591 2 7.69489 0 5.98492
592 2 6.8399 0.854988 5.98492
593 1 6.8399 0 6.8399
594 2 7.69489 0.854988 6.8399
595 2 7.69489 0 7.69489
596 1 6.8399 0.854988 7.69489
597 2 6.8399 0 8.54988
598 2 7.69489 0.854988 8.54988
599 1 7.69489 0 9.40487
600 2 6.8399 0.854988 9.40487
601 1 6.8399 1.70998 0
602 1 7.69489 2.56496 0
603 1 7.69489 1.70998 0.854988
604 2 6.8399 2.56496 0.854988
605 2 6.8399 1.70998 1.70998
606 1 7.69489 2.56496 1.70998
607 2 7.69489 1.70998 2.56496
608 1 6.8399 2.56496 2.56496
609 2 6.8399 1.70998 3.41995
610 1 7.69489 2.56496 3.41995
611 1 7.69489 1.70998 4.27494
612 1 6.8399 2.56496 4.27494
613 2 6.8399 1.70998 5.12993
614 2 7.69489 2.56496 5.12993
615 1 7.69489 1.70998 5.98492
616 1 6.8399 2.56496 5.98492
617 1 6.8399 1.70998 6.8399
618 2 7.69489 2.56496 6.8399
619 2 7.69489 1.70998 7.69489
620 1 6.8399 2.56496 7.69489
621 1 6.8399 1.70998 8.54988
622 1 7.69489 2.56496 8.54988
623 1 7.69489 1.70998 9.40487
624 1 6.8399 2.56496 9.40487
625 1 6.8399 3.41995 0
626 1 7.69489 4.27494 0
627 2 7.69489 3.41995 0.854988
628 2 6.8399 4.27494 0.854988
629 2 6.8399 3.41995 1.70998
630 1 7.69489 4.27494 1.70998
631 2 7.69489 3.41995 2.56496
632 2 6.8399 4.27494 2.56496
633 2 6.8399 3.41995 3.41995
634 2 7.69489 4.27494 3.41995
635 1 7.69489 3.41995 4.27494
636 1 6.8399 4.27494 4.27494
637 2 6.8399 3.41995 5.12993
638 2 7.69489 4.27494 5.12993
639 1 7.69489 3.41995 5.98492
640 2 6.8399 4.27494 5.98492
641 1 6.8399 3.41995 6.8399
642 2 7.69489 4.27494 6.8399
643 1 7.69489 3.41995 7.69489
644 2 6.8399 4.27494 7.69489
645 1 6.8399 3.41995 8.54988
646 2 7.69489 4.27494 8.54988
647 2 7.69489 3.41995 9.40487
648 1 6.8399 4.27494 9.40487
649 2 6.8399 5.12993 0
650 1 7.69489 5.98492 0
651 2 7.69489 5.12993 0.854988
652 1 6.8399 5.98492 0.854988
653 1 6.8399 5.12993 1.70998
654 1 7.69489 5.98492 1.70998
655 2 7.69489 5.12993 2.56496
656 1 6.8399 5.98492 2.56496
657 2 6.8399 5.12993 3.41995
658 2 7.69489 5.98492 3.41995
659 1 7.69489 5.12993 4.27494
660 1 6.8399 5.98492 4.27494
661 1 6.8399 5.12993 5.12993
662 2 7.69489 5.98492 5.12993
663 2 7.69489 5.12993 5.98492
664 1 6.8399 5.98492 5.98492
665 2 6.8399 5.12993 6.8399
666 2 7.69489 5.98492 6.8399
667 2 7.69489 5.12993 7.69489
668 1 6.8399 5.98492 7.69489
669 1 6.8399 5.12993 8.54988
670 2 7.69489 5.98492 8.54988
671 1 7.69489 5.12993 9.40487
672 1 6.8399 5.98492 9.40487
673 2 6.8399 6.8399 0
674 2 7.69489 7.69489 0
675 2 7.69489 6.8399 0.854988
676 2 6.8399 7.69489 0.854988
677 2 6.8399 6.8399 1.70998
678 1 7.69489 7.69489 1.70998
679 1 7.69489 6.8399 2.56496
680 2 6.8399 7.69489 2.56496
681 2 6.8399 6.8399 3.41995
682 1 7.69489 7.69489 3.41995
683 1 7.69489 6.8399 4.27494
684 1 6.8399 7.69489 4.27494
685 1 6.8399 6.8399 5.12993
686 2 7.69489 7.69489 5.12993
687 1 7.69489 6.8399 5.98492
688 1 6.8399 7.69489 5.98492
689 2 6.8399 6.8399 6.8399
690 2 7.69489 7.69489 6.8399
691 2 7.69489 6.8399 7.69489
692 2 6.8399 7.69489 7.69489
693 2 6.8399 6.8399 8.54988
694 2 7.69489 7.69489 8.54988
695 1 7.69489 6.8399 9.40487
696 1 6.8399 7.69489 9.40487
697 1 6.8399 8.54988 0
698 1 7.69489 9.40487 0
699 1 7.69489 8.54988 0.854988
700 2 6.8399 9.40487 0.854988
701 1 6.8399 8.54988 1.70998
702 1 7.69489 9.40487 1.70998
703 1 7.69489 8.54988 2.56496
704 2 6.8399 9.40487 2.56496
705 1 6.8399 8.54988 3.41995
706 1 7.69489 9.40487 3.41995
707 1 7.69489 8.54988 4.27494
708 2 6.8399 9.40487 4.27494
709 1 6.8399 8.54988 5.12993
710 1 7.69489 9.40487 5.12993
711 2 7.69489 8.54988 5.98492
712 1 6.8399 9.40487 5.98492
713 1 6.8399 8.54988 6.8399
714 1 7.69489 9.40487 6.8399
715 1 7.69489 8.54988 7.69489
716 2 6.8399 9.40487 7.69489
717 1 6.8399 8.54988 8.54988
718 2 7.69489 9.40487 8.54988
719 2 7.69489 8.54988 9.40487
720 2 6.8399 9.40487 9.40487
721 2 8.54988 0 0
722 1 9.40487 0.854988 0
723 1 9.40487 0 0.854988
724 2 8.54988 0.854988 0.854988
725 1 8.54988 0 1.70998
726 1 9.40487 0.854988 1.70998
727 2 9.40487 0 2.56496
728 2 8.54988 0.854988 2.56496
729 2 8.54988 0 3.41995
730 2 9.40487 0.854988 3.41995
731 2 9.40487 0 4.27494
732 2 8.54988 0.854988 4.27494
733 2 8.54988 0 5.12993
734 2 9.40487 0.854988 5.12993
735 1 9.40487 0 5.98492
736 2 8.54988 0.854988 5.98492
737 2 8.54988 0 6.8399
738 2 9.40487 0.854988 6.8399
739 1 9.40487 0 7.69489
740 2 8.54988 0.854988 7.69489
741 1 8.54988 0 8.54988
742 1 9.40487 0.854988 8.54988
743 1 9.40487 0 9.40487
744 1 8.54988 0.854988 9.40487
745 1 8.54988 1.70998 0
746 2 9.40487 2.56496 0
747 1 9.40487 1.70998 0.854988
748 1 8.54988 2.56496 0.854988
749 2 8.54988 1.70998 1.70998
750 1 9.40487 2.56496 1.70998
751 2 9.40487 1.70998 2.56496
752 2 8.54988 2.56496 2.56496
753 1 8.54988 1.70998 3.41995
754 1 9.40487 2.56496 3.41995
755 2 9.40487 1.70998 4.27494
756 2 8.54988 2.56496 4.27494
757 2 8.54988 1.70998 5.12993
758 2 9.40487 2.56496 5.12993
759 2 9.40487 1.70998 5.98492
760 2 8.54988 2.56496 5.98492
761 2 8.54988 1.70998 6.8399
762 1 9.40487 2.56496 6.8399
763 1 9.40487 1.70998 7.69489
764 1 8.54988 2.56496 7.69489
765 1 8.54988 1.70998 8.54988
766 1 9.40487 2.56496 8.54988
767 1 9.40487 1.70998 9.40487
768 2 8.54988 2.56496 9.40487
769 1 8.54988 3.41995 0
770 2 9.40487 4.27494 0
771 1 9.40487 3.41995 0.854988
772 1 8.54988 4.27494 0.854988
773 1 8.54988 3.41995 1.70998
774 1 9.40487 4.27494 1.70998
775 2 9.40487 3.41995 2.56496
776 1 8.54988 4.27494 2.56496
777 1 8.54988 3.41995 3.41995
778 1 9.40487 4.27494 3.41995
779 2 9.40487 3.41995 4.27494
780 2 8.54988 4.27494 4.27494
781 1 8.54988 3.41995 5.12993
782 2 9.40487 4.27494 5.12993
783 1 9.40487 3.41995 5.98492
784 2 8.54988 4.27494 5.98492
785 1 8.54988 3.41995 6.8399
786 2 9.40487 4.27494 6.8399
787 2 9.40487 3.41995 7.69489
788 1 8.54988 4.27494 7.69489
789 2 8.54988 3.41995 8.54988
790 2 9.40487 4.27494 8.54988
791 1 9.40487 3.41995 9.40487
792 2 8.54988 4.27494 9.40487
793 2 8.54988 5.12993 0
794 1 9.40487 5.98492 0
795 2 9.40487 5.12993 0.854988
796 1 8.54988 5.98492 0.854988
797 2 8.54988 5.12993 1.70998
798 1 9.40487 5.98492 1.70998
799 2 9.40487 5.12993 2.56496
800 2 8.54988 5.98492 2.56496
801 1 8.54988 5.12993 3.41995
802 1 9.40487 5.98492 3.41995
803 1 9.40487 5.12993 4.27494
804 2 8.54988 5.98492 4.27494
805 2 8.54988 5.12993 5.12993
806 2 9.40487 5.98492 5.12993
807 2 9.40487 5.12993 5.98492
808 1 8.54988 5.98492 5.98492
809 2 8.54988 5.12993 6.8399
810 2 9.40487 5.98492 6.8399
811 1 9.40487 5.12993 7.69489
812 1 8.54988 5.98492 7.69489
813 1 8.54988 5.12993 8.54988
814 1 9.40487 5.98492 8.54988
815 1 9.40487 5.12993 9.40487
816 1 8.54988 5.98492 9.40487
817 2 8.54988 6.8399 0
818 2 9.40487 7.69489 0
819 1 9.40487 6.8399 0.854988
820 2 8.54988 7.69489 0.854988
821 1 8.54988 6.8399 1.70998
822 2 9.40487 7.69489 1.70998
823 1 9.40487 6.8399 2.56496
824 2 8.54988 7.69489 2.56496
825 1 8.54988 6.8399 3.41995
826 2 9.40487 7.69489 3.41995
827 1 9.40487 6.8399 4.27494
828 1 8.54988 7.69489 4.27494
829 2 8.54988 6.8399 5.12993
830 2 9.40487 7.69489 5.12993
831 2 9.40487 6.8399 5.98492
832 2 8.54988 7.69489 5.98492
833 2 8.54988 6.8399 6.8399
834 1 9.40487 7.69489 6.8399
835 2 9.40487 6.8399 7.69489
836 1 8.54988 7.69489 7.69489
837 2 8.54988 6.8399 8.54988
838 2 9.40487 7.69489 8.54988
839 2 9.40487 6.8399 9.40487
840 1 8.54988 7.69489 9.40487
841 1 8.54988 8.54988 0
842 2 9.40487 9.40487 0
843 2 9.40487 8.54988 0.854988
844 1 8.54988 9.40487 0.854988
845 1 8.54988 8.54988 1.70998
846 1 9.40487 9.40487 1.70998
847 1 9.40487 8.54988 2.56496
848 2 8.54988 9.40487 2.56496
849 1 8.54988 8.54988 3.41995
850 1 9.40487 9.40487 3.41995
851 1 9.40487 8.54988 4.27494
852 1 8.54988 9.40487 4.27494
853 2 8.54988 8.54988 5.12993
854 1 9.40487 9.40487 5.12993
855 2 9.40487 8.54988 5.98492
856 1 8.54988 9.40487 5.98492
857 1 8.54988 8.54988 6.8399
858 1 9.40487 9.40487 6.8399
859 2 9.40487 8.54988 7.69489
860 1 8.54988 9.40487 7.69489
861 1 8.54988 8.54988 8.54988
862 1 9.40487 9.40487 8.54988
863 1 9.40487 8.54988 9.40487
864 2 8.54988 9.40487 9.40487
ITEM: TIMESTEP
1
ITEM: NUMBER OF ATOMS
864
ITEM: BOX BOUNDS pp pp pp
0.0000000000000000e+00 1.0259855679999999e+01
0.0000000000000000e+00 1.0259855679999999e+01
0.0000000000000000e+00 1.0259855679999999e+01
ITEM: ATOMS id type x y z
1 2 0.000512568 0.00145373 -0.00109024
2 2 0.854449 0.855826 -0.000700303
3 1 0.854804 -9.03014e-05 0.854214
4 1 -0.000482595 0.854644 0.85538
5 2 -9.244e-05 0.0002064 1.71093
6 2 0.853569 0.853549 1.71001
7 1 0.85477 0.000640739 2.56415
8 2 -0.000244507 0.855709 2.56665
9 1 -0.000646461 -0.000563309 3.42177
10 1 0.855302 0.854948 3.42245
11 2 0.856396 -0.00169775 4.27611
12 1 -0.000882326 0.855067 4.27384
13 1 0.000144047 -0.000672053 5.13041
14 2 0.854031 0.854808 5.13036
15 2 0.854343 0.00222181 5.98398
16 1 0.000166453 0.854755 5.98374
17 1 -0.000696919 -0.000768855 6.83911
18 2 0.855168 0.855553 6.84147
19 1 0.853462 -0.00076631 7.6966
20 2 -0.00117382 0.856831 7.69496
21 2 -0.000971441 0.000662258 8.54916
22 2 0.853273 0.855191 8.55131
23 2 0.854156 -0.0014072 9.40581
24 2 -0.00133693 0.85482 9.40373
25 2 2.62075e-06 1.70963 -0.000720542
26 1 0.85717 2.56438 0.000208878
27 2 0.854817 1.71006 0.855674
28 2 0.000894227 2.56516 0.855488
29 2 -0.000901426 1.70952 1.70908
30 1 0.853245 2.56584 1.70927
31 1 0.854982 1.70949 2.56563
32 1 0.000941545 2.56625 2.56391
33 1 0.000336822 1.71068 3.41967
34 1 0.85538 2.56487 3.42096
35 1 0.853941 1.70892 4.27538
36 1 0.00117893 2.56501 4.27591
37 1 0.000682234 1.71015 5.12972
38 1 0.855305 2.5657 5.13104
39 2 0.856897 1.70997 5.98666
40 2 -0.000303852 2.56455 5.98404
41 2 0.000942228 1.70902 6.84092
42 1 0.857219 2.56414 6.83938
43 2 0.85473 1.70949 7.69392
44 1 0.00118566 2.56289 7.69514
45 2 -0.000288288 1.71077 8.54927
46 2 0.854703 2.56529 8.55073
47 2 0.855712 1.70734 9.40331
48 2 0.000462651 2.56691 9.40579
49 2 -0.000579501 3.42095 0.000309878
50 1 0.855439 4.27472 0.000916023
51 2 0.853978 3.42035 0.85596
52 2 0.000128396 4.27663 0.854748
53 1 -0.00105732 3.4191 1.71013
54 2 0.855744 4.27686 1.71016
55 2 0.853645 3.42025 2.5659
56 2 -0.0008685 4.27508 2.56431
57 2 0.00198342 3.41977 3.42077
58 2 0.855612 4.2759 3.41992
59 2 0.856257 3.41995 4.27374
60 2 -0.000915036 4.27481 4.27451
61 2 0.00201093 3.42037 5.12921
62 2 0.855526 4.27469 5.13172
63 2 0.854716 3.41875 5.98426
64 2 0.000323029 4.27468 5.98521
65 2 -0.000185568 3.41957 6.84094
66 2 0.854657 4.27588 6.83946
67 2 0.855793 3.4193 7.69567
68 2 -0.00226232 4.27504 7.69536
69 1 -0.00130095 3.42162 8.54928
70 2 0.855216 4.27358 8.54773
71 1 0.85473 3.42161 9.40452
72 2 0.0012636 4.27618 9.40448
73 1 -0.000815327 5.12921 0.00187945
74 1 0.855305 5.98497 0.00117565
75 2 0.854181 5.12999 0.857433
76 1 -0.000802283 5.98508 0.854664
77 2 0.000759459 5.13086 1.71121
78 2 0.856836 5.98458 1.70854
79 1 0.855791 5.12886 2.56324
80 1 -0.00077228 5.9865 2.56467
81 1 -0.000595149 5.13146 3.41974
82 2 0.852898 5.98437 3.42032
83 2 0.855547 5.13013 4.2747
84 1 -0.000489665 5.98567 4.2755
85 2 -0.00134567 5.1278 5.13018
86 1 0.856406 5.98693 5.12949
87 2 0.854741 5.12965 5.98688
88 1 0.000565018 5.98379 5.98375
89 2 -0.000442093 5.13009 6.83965
90 2 0.85384 5.98633 6.84136
91 2 0.856443 5.12836 7.69384
92 2 -0.00188721 5.98425 7.69474
93 1 0.000130616 5.13052 8.55005
94 1 0.854037 5.98618 8.54893
95 2 0.854074 5.13078 9.40513
96 2 -0.000844435 5.98309 9.40435
97 2 -0.000307487 6.83921 -0.00126388
98 1 0.854942 7.69317 0.00190366
99 2 0.855104 6.83844 0.855637
100 2 -0.00172126 7.6941 0.854126
101 2 -0.00115726 6.84088 1.71043
102 2 0.853792 7.69424 1.70864
103 1 0.855997 6.83825 2.56497
104 2 -0.000246314 7.69428 2.56543
105 1 -0.00103708 6.84061 3.4183
106 2 0.853639 7.69404 3.41912
107 1 0.853957 6.83806 4.27495
108 2 0.000257958 7.69529 4.27555
109 2 -1.5537e-05 6.84188 5.12868
110 2 0.855859 7.69506 5.1307
111 2 0.856386 6.84124 5.98485
112 2 0.000193664 7.6941 5.98495
113 1 -9.44334e-05 6.84111 6.83902
114 1 0.856618 7.6953 6.84048
115 2 0.854857 6.84104 7.69367
116 1 -0.000557706 7.69369 7.69354
117 2 -0.000123526 6.83959 8.54977
118 1 0.854695 7.69498 8.5502
119 1 0.854995 6.83904 9.40417
120 2 -0.00125854 7.69498 9.40367
121 2 -0.000132682 8.54893 0.00011092
122 2 0.854804 9.40611 -0.000349288
123 2 0.856658 8.54861 0.85403
124 1 -0.00165217 9.40473 0.8544
125 2 -0.00105004 8.55 1.71002
126 2 0.855001 9.40668 1.70951
127 1 0.853885 8.55023 2.56496
128 2 0.00070681 9.40383 2.56539
129 2 0.000318644 8.54977 3.41944
130 2 0.852454 9.40588 3.41838
131 1 0.853084 8.54874 4.27462
132 1 -0.000581931 9.40285 4.2742
133 1 0.000634534 8.54931 5.13031
134 2 0.857264 9.40492 5.12786
135 1 0.855834 8.54943 5.98595
136 2 0.00053914 9.40402 5.98389
137 1 -0.000784822 8.54923 6.84006
138 1 0.855471 9.40517 6.84007
139 1 0.854927 8.549 7.69536
140 1 -0.000205936 9.40361 7.69551
141 2 6.00014e-05 8.54894 8.5503
142 2 0.854763 9.40505 8.55051
143 1 0.854111 8.55093 9.40598
144 1 -0.00225127 9.40494 9.40548
145 2 1.71029 -0.000241487 -0.00030454
146 2 2.56542 0.854071 0.00154234
147 1 2.56374 0.000104745 0.854476
148 2 1.71081 0.854886 0.855106
149 2 1.71178 0.000891687 1.70968
150 1 2.56455 0.855703 1.71133
151 1 2.56599 0.000344513 2.56542
152 1 1.70853 0.855294 2.56435
153 2 1.71118 0.000624149 3.42169
154 2 2.56514 0.854399 3.42028