Rouse chains: Gaussian initial conformations

1024 atoms
896 bonds

3 atom types
1 bond types

0.0 100.00000000 xlo xhi
0.0 100.00000000 ylo yhi
0.0 100.00000000 zlo zhi

Masses

1 1.0
2 1.0
3 1.0

Atoms

1 1 2 24.25594082 35.13997594 47.69549970
2 1 1 23.43389505 35.86958991 47.19282291
3 1 1 23.28426132 35.82609043 46.76507295
4 1 1 22.49456583 36.20072886 46.97352995
5 1 1 21.36707982 37.55600646 47.53269190
6 1 1 20.92864742 38.07689088 47.26309636
7 1 1 20.89360831 38.53233037 46.53755868
8 1 3 21.22607980 39.34003127 47.30098782
9 2 2 36.48627020 29.29491126 38.09594162
10 2 1 36.39493959 29.55442093 37.32021318
11 2 1 36.34777724 30.55020000 38.83180823
12 2 1 36.79658702 31.02861159 38.27813606
13 2 1 36.09834637 30.21322442 38.59079827
14 2 1 36.53247878 29.83288897 37.88142244
15 2 1 36.68117983 30.01354356 37.80589827
16 2 3 37.41440492 29.95987166 37.76770604
17 3 2 23.37083613 80.30078893 23.44571129
18 3 1 23.40613764 80.34173149 23.69608185
19 3 1 23.56634291 80.64787285 24.00595785
20 3 1 23.92334746 80.18886931 24.17918080
21 3 1 22.99802726 80.34290568 23.45078197
22 3 1 22.95687904 80.61659842 23.21126604
23 3 1 23.01329569 79.66950274 22.71632742
24 3 3 23.41067537 79.00293478 23.09186628
25 4 2 89.74918687 44.46194442 40.47506092
26 4 1 89.75331244 44.77045725 39.85971647
27 4 1 89.64853910 45.70689156 39.67647015
28 4 1 89.17752811 45.93008306 39.54735215
29 4 1 88.77240673 44.89332757 40.01981267
30 4 1 88.44272073 44.89378110 39.40571826
31 4 1 89.19426595 45.32556574 39.97202723
32 4 3 89.13051569 45.59571863 40.48621951
33 5 2 70.90152048 83.26291866 23.49962719
34 5 1 70.69397481 82.83068885 22.94220768
35 5 1 70.90184091 82.68949638 21.78989933
36 5 1 70.81220866 83.30369943 21.63102895
37 5 1 69.74218466 83.23191058 22.08423420
38 5 1 69.85880861 82.98476169 23.15134430
39 5 1 70.95574692 82.92793596 23.62098724
40 5 3 71.18235366 83.37910223 24.46003394
41 6 2 33.39139160 79.88800190 58.55838841
42 6 1 32.92264849 79.87325743 59.22706656
43 6 1 33.09615430 79.90388970 59.37560235
44 6 1 33.11679045 80.21983695 58.72726018
45 6 1 31.97638067 79.97437645 58.06384210
46 6 1 32.90888106 79.88287980 57.91784560
47 6 1 32.02082742 80.04574224 57.55780297
48 6 3 32.66851180 80.53142143 57.10983915
49 7 2 80.90121852 66.99623954 86.44249478
50 7 1 81.62072485 67.45246635 86.54372789
51 7 1 81.60381160 66.63290942 85.75855097
52 7 1 81.73279833 67.65007324 84.50518713
53 7 1 82.09565614 67.99717422 85.05410744
54 7 1 81.59379635 67.69175185 85.08048316
55 7 1 81.00053903 66.98202134 84.57047591
56 7 3 80.95960867 67.19798114 84.55627671
57 8 2 80.56277178 46.54676660 43.77616232
58 8 1 81.20976367 46.51511963 43.72858073
59 8 1 81.75015573 47.23018937 44.46342957
60 8 1 81.98449771 47.20113409 44.63046713
61 8 1 82.08801989 48.00796987 44.79908043
62 8 1 82.45660358 47.99186889 45.59065758
63 8 1 81.27141454 48.21155591 46.02678259
64 8 3 80.60219292 49.45303803 45.94002404
65 9 2 78.37247940 65.11429979 47.94133573
66 9 1 78.50207573 64.77274315 48.07196862
67 9 1 78.89824338 65.47422638 48.19671060
68 9 1 78.34120224 65.15286872 46.86973587
69 9 1 77.91853443 65.57806935 47.13861755
70 9 1 77.85625216 65.38094101 48.05344856
71 9 1 78.01920420 65.90606787 48.28154323
72 9 3 77.63273948 66.80406057 47.56670333
73 10 2 61.93147518 86.84343500 77.37969231
74 10 1 61.60962036 86.49705194 77.94943726
75 10 1 61.64090967 86.70022580 77.03262264
76 10 1 61.15192209 87.32640273 76.33759300
77 10 1 61.83234721 86.73134752 76.51034679
78 10 1 61.34377034 86.84486630 75.99094065
79 10 1 61.19561913 87.81051221 75.77427861
80 10 3 62.37156314 87.54562772 75.09544768
81 11 2 44.52236823 18.04274903 89.30846155
82 11 1 45.01942240 18.72475789 89.67315649
83 11 1 46.44605325 19.18334866 89.97993322
84 11 1 45.96719974 18.65836184 90.08630189
85 11 1 46.54324415 19.30323845 89.54128292
86 11 1 46.85005195 19.41486681 88.89565314
87 11 1 47.14556614 18.10395475 89.04759068
88 11 3 48.57237965 17.51512376 89.05841751
89 12 2 85.96393048 64.21879766 88.12977794
90 12 1 85.36206476 64.19901871 87.92472143
91 12 1 85.14357904 64.30908978 88.20438776
92 12 1 85.85387446 64.79000559 87.87821849
93 12 1 86.67064959 65.51070109 86.97815938
94 12 1 87.05472180 65.98735869 87.53606382
95 12 1 87.37063361 65.23842958 87.38154507
96 12 3 86.17539930 65.14727027 88.55295564
97 13 2 37.77671761 40.06363627 37.50211153
98 13 1 37.19028181 39.44571507 37.57365254
99 13 1 36.72666037 39.07757590 38.23442740
100 13 1 35.77928521 38.31893558 37.93977524
101 13 1 35.72163050 38.24416482 37.13338720
102 13 1 35.83352639 38.16951763 37.33804580
103 13 1 35.20832958 38.31093336 37.46553675
104 13 3 34.82702870 38.18476203 37.14453057
105 14 2 50.30822177 49.93038356 68.57879494
106 14 1 49.32338611 49.71207592 68.18706629
107 14 1 49.08595316 50.12719806 67.24453073
108 14 1 48.59769172 49.99839118 66.55042966
109 14 1 48.81130421 50.18891525 66.14025312
110 14 1 47.78875501 51.11315825 66.41224171
111 14 1 48.03340755 51.15487786 66.40799994
112 14 3 48.51322931 51.14586801 66.04374600
113 15 2 13.89687160 66.94202166 38.36181820
114 15 1 13.37365421 67.61491144 38.72615358
115 15 1 14.51422040 67.31084692 38.29687023
116 15 1 14.74740673 68.10724784 38.64140538
117 15 1 14.99748777 69.19670091 38.21220843
118 15 1 14.27698407 68.76679532 38.02927096
119 15 1 14.49253855 69.35682440 38.26344984
120 15 3 15.37202415 68.87906236 39.36358816
121 16 2 32.04076939 64.67294499 22.18844934
122 16 1 32.23895469 64.70233120 22.48726254
123 16 1 32.67278998 64.57924061 22.44868187
124 16 1 32.81084119 63.82579380 22.02650232
125 16 1 31.87298946 63.82882519 23.30946523
126 16 1 32.30098454 63.32916911 22.90088329
127 16 1 32.86441996 63.05526873 21.97222575
128 16 3 32.27383939 62.44659350 21.38252093
129 17 2 34.85337081 22.43952780 62.79615649
130 17 1 33.99390442 22.12787586 62.13894654
131 17 1 33.29622250 21.25799669 63.14767101
132 17 1 33.11878572 21.59068357 63.64924041
133 17 1 32.89692637 21.89951951 63.96136513
134 17 1 33.02536170 23.15209947 64.12529110
135 17 1 32.89344264 23.52516271 65.15179883
136 17 3 33.46750664 23.24901614 64.65599087
137 18 2 42.40213960 41.02006783 21.66468162
138 18 1 42.89057117 39.70951282 21.65390355
139 18 1 42.25258822 40.10378516 22.18190105
140 18 1 41.80320642 39.84431055 21.63248377
141 18 1 42.02899571 38.91479867 20.98263260
142 18 1 41.63372796 39.62292972 22.36970092
143 18 1 41.64525095 38.91188173 22.41253250
144 18 3 41.14350494 39.17735868 21.76953490
145 19 2 50.04595398 83.38489169 9.42384960
146 19 1 50.00156239 84.11575281 9.49557542
147 19 1 48.95435586 84.64925854 9.32750102
148 19 1 48.56766845 85.51972069 8.75384222
149 19 1 48.60962302 85.10808468 9.53466743
150 19 1 48.39945754 85.24416584 8.73083151
151 19 1 49.22780159 84.62667794 9.25648545
152 19 3 49.87079981 85.33815555 10.30386397
153 20 2 61.39648280 84.26474086 35.71263505
154 20 1 61.63892112 84.89885594 35.77577510
155 20 1 61.16727260 84.84270691 36.66445367
156 20 1 60.48658386 84.88871263 36.09789947
157 20 1 61.12673795 83.93698038 35.90097310
158 20 1 61.05503396 84.00448171 37.26422335
159 20 1 61.95291107 83.40989210 38.51095610
160 20 3 61.26440158 82.32973297 37.64580708
161 21 2 80.61493788 89.56500128 39.79969985
162 21 1 80.86664769 89.41081864 40.20753404
163 21 1 80.64459484 89.93048106 40.53335885
164 21 1 79.96756794 90.76509398 40.65600371
165 21 1 80.38906182 91.49357835 40.09322673
166 21 1 80.34013877 91.01917081 39.54914757
167 21 1 80.49370214 91.21534929 40.31783374
168 21 3 81.29364440 91.20301807 39.83455420
169 22 2 43.72306404 45.46087897 9.46857833
170 22 1 43.18603884 45.21627046 9.63079127
171 22 1 43.83934024 45.77594413 9.88217835
172 22 1 43.69666213 45.87304590 9.70283919
173 22 1 43.73761566 45.81336388 10.00613588
174 22 1 42.65065156 45.61378658 9.83794844
175 22 1 41.99787721 45.51406395 9.22968549
176 22 3 41.61419727 45.34681597 9.08351670
177 23 2 35.38795823 59.67673288 43.84574039
178 23 1 35.57406791 59.81130905 43.46003274
179 23 1 35.06414117 60.29607525 43.25618312
180 23 1 34.04157448 59.02660492 43.38421643
181 23 1 33.61602275 58.98758537 43.06825909
182 23 1 33.38080180 58.88785525 42.34806811
183 23 1 33.36996932 59.45719397 42.74971584
184 23 3 32.36559657 58.68260002 41.98020817
185 24 2 56.55442691 41.55853477 34.19224548
186 24 1 55.54196074 41.59022295 34.65840478
187 24 1 55.28272240 42.68960160 34.28227938
188 24 1 55.95965538 44.04708307 33.54533587
189 24 1 55.77277482 44.37888408 35.39944872
190 24 1 54.74020376 44.70569333 35.56387596
191 24 1 54.49634479 44.22369105 35.26023811
192 24 3 54.32137667 43.49053733 36.16984486
193 25 2 19.07099613 54.01589935 87.00287730
194 25 1 18.83240386 54.06958018 86.56547843
195 25 1 18.69607419 55.06519787 87.17527598
196 25 1 18.52978057 55.58895710 86.73158572
197 25 1 18.66022203 54.76418772 86.07102850
198 25 1 18.15991547 55.47867931 86.20421822
199 25 1 18.47616660 55.56623616 86.41604806
200 25 3 18.71835287 56.00809456 86.50914965
201 26 2 35.74552114 18.04906992 77.90832006
202 26 1 36.56062623 18.37201912 76.95863734
203 26 1 37.47005139 18.55846608 76.91561204
204 26 1 37.48139914 18.34329708 77.93079266
205 26 1 38.45286641 17.72852418 77.82121383
206 26 1 38.62803647 18.46506812 76.41848266
207 26 1 39.16532441 19.42799518 76.22559569
208 26 3 39.13558475 20.14579069 76.43750427
209 27 2 32.41649029 27.21034169 58.94860976
210 27 1 31.58951266 27.19874352 58.64020848
211 27 1 31.60502921 27.59869271 59.66476401
212 27 1 31.72173543 26.51278522 60.46080621
213 27 1 31.64457425 27.17772630 60.19151558
214 27 1 31.81117697 27.09045581 60.16720766
215 27 1 32.53986180 26.70207057 60.25239423
216 27 3 32.65753527 26.46754001 58.96953792
217 28 2 30.15272275 51.07477740 70.81605024
218 28 1 29.87676646 51.31302516 71.30471541
219 28 1 30.34563371 51.64823665 71.08470274
220 28 1 31.03902810 51.48440036 71.72388997
221 28 1 29.73646760 50.92329962 71.38157591
222 28 1 29.72601843 49.53029838 71.84300942
223 28 1 30.28958775 49.97664333 71.53515662
224 28 3 31.12183247 49.65102844 72.05100225
225 29 2 88.21697828 18.38908662 52.05298464
226 29 1 88.19587514 19.02305510 52.87645634
227 29 1 89.01264092 19.53945924 53.25385330
228 29 1 89.26503086 20.54771958 52.98994882
229 29 1 88.89015224 20.56675085 52.01708969
230 29 1 88.74431457 20.52400885 51.41420354
231 29 1 88.40207472 20.91670558 51.27219085
232 29 3 88.43704048 21.50544326 50.90843100
233 30 2 43.11129002 15.78216754 29.87455801
234 30 1 42.05492683 16.15279994 29.68422641
235 30 1 41.80705650 15.64653387 29.56898412
236 30 1 42.35569567 15.94321844 30.02959765
237 30 1 42.13738258 16.85672044 30.76032534
238 30 1 42.12022038 15.33265465 30.78985154
239 30 1 43.70664580 15.29562683 30.19505033
240 30 3 44.68762243 14.93553800 30.47649755
241 31 2 41.12873159 46.05461364 45.50994340
242 31 1 41.81498723 45.86210230 45.88469640
243 31 1 41.79949576 46.45391368 46.95176963
244 31 1 41.16266201 46.28625763 47.17784157
245 31 1 40.79594096 45.80703032 46.97590387
246 31 1 40.63829945 45.42716619 47.16462321
247 31 1 41.10391946 45.85744991 47.55684989
248 31 3 41.79241310 45.06831145 47.48952496
249 32 2 20.56238811 56.96633482 30.60319174
250 32 1 21.64822350 56.45214103 30.75564977
251 32 1 22.07390750 57.07962686 30.35934167
252 32 1 21.76109339 57.29393916 30.69851135
253 32 1 22.28775221 57.26170784 30.29791711
254 32 1 21.51716611 58.27001434 29.50500054
255 32 1 21.92200974 58.43171042 29.94631980
256 32 3 22.47425251 59.21263571 29.91412238
257 33 2 38.20874303 16.60986733 14.32635720
258 33 1 37.68655481 16.52311114 15.04309547
259 33 1 37.75047426 17.15541746 14.92953094
260 33 1 37.98398812 16.91928321 13.46228265
261 33 1 37.57462683 16.76825736 13.55617820
262 33 1 37.57925111 16.69856755 14.10710765
263 33 1 37.94389576 16.47253079 14.61433452
264 33 3 36.80099831 16.31331358 14.53334606
265 34 2 10.14117209 36.04922692 19.02582187
266 34 1 10.24836004 37.03218241 18.91061487
267 34 1 10.19705859 36.91982509 18.94683203
268 34 1 10.95587628 38.06028368 19.22583961
269 34 1 10.90286611 39.13779228 19.29074930
270 34 1 10.94883218 38.93931014 19.11685929
271 34 1 11.09629039 38.78188091 19.36694021
272 34 3 11.15816385 39.11172198 19.15573904
273 35 2 25.83741084 61.05442273 30.59706755
274 35 1 25.90451340 61.73926596 29.98744995
275 35 1 24.79292989 62.16711945 29.85718825
276 35 1 25.58134276 62.12718525 29.19150565
277 35 1 26.85709821 62.36763688 28.93956728
278 35 1 26.43216617 62.70102008 28.55765425
279 35 1 26.66584602 63.38167184 27.76402364
280 35 3 26.46823676 63.66641568 28.73062011
281 36 2 67.36353363 40.65931483 78.76378398
282 36 1 67.16391497 40.57268912 78.98889108
283 36 1 66.53859732 42.35409174 79.68681714
284 36 1 66.67149547 42.03204452 79.02372186
285 36 1 66.89202654 42.43871019 78.79919036
286 36 1 66.78492408 42.76568129 78.76949627
287 36 1 65.71899871 43.15518407 78.91500974
288 36 3 66.14511533 42.72364071 77.69256501
289 37 2 17.41262621 82.97692751 28.84023410
290 37 1 18.77490718 83.15561830 28.00234135
291 37 1 18.58434708 83.41705802 28.25772398
292 37 1 18.64234401 84.19331869 27.74181194
293 37 1 17.39487535 83.68974826 27.07395653
294 37 1 18.68718120 83.58520263 26.25220903
295 37 1 19.04617610 84.16919369 26.28574722
296 37 3 19.16015259 84.76293165 26.58558844
297 38 2 39.46991437 86.90769126 42.63067886
298 38 1 39.66993257 87.41420660 42.97070575
299 38 1 39.53585004 87.33176885 43.32725508
300 38 1 39.21838985 87.99876852 44.03284242
301 38 1 38.04699045 87.96020235 43.60100902
302 38 1 37.68245196 88.04543694 43.50475547
303 38 1 38.00997312 88.23248150 43.71998269
304 38 3 37.55910657 88.03253449 44.56327629
305 39 2 25.58495654 76.98722525 39.24016016
306 39 1 26.26679219 75.48988570 38.99926526
307 39 1 26.75745058 75.57720176 39.58643057
308 39 1 26.25302874 75.25481954 39.20953041
309 39 1 26.54671733 75.52246300 39.13939270
310 39 1 26.39492292 75.35457881 39.19029374
311 39 1 25.84806224 75.32236560 39.10794742
312 39 3 25.53698379 74.99396264 39.96148513
313 40 2 90.60322706 64.14611860 47.64754829
314 40 1 91.03130310 64.15837132 48.23344294
315 40 1 90.20884242 63.44835125 48.00513265
316 40 1 90.08227463 63.39372994 49.09098431
317 40 1 91.05741696 63.37229947 49.23882655
318 40 1 90.53414957 63.55694205 48.46431582
319 40 1 91.34262236 63.25774313 48.78668088
320 40 3 90.58890595 64.06143864 49.14008191
321 41 2 22.01009245 40.11292714 50.24267810
322 41 1 21.07520392 39.66048340 49.51811280
323 41 1 21.98678288 39.30019655 49.08389427
324 41 1 22.33094379 39.45430493 49.36870843
325 41 1 22.04141513 38.30092950 48.58423549
326 41 1 20.77381890 39.04060254 49.11003512
327 41 1 20.55808203 39.40115433 49.49917907
328 41 3 20.92586341 39.70885609 50.01012808
329 42 2 18.59623127 37.52933478 72.47945048
330 42 1 19.32723323 37.87488425 71.02851667
331 42 1 19.42861443 37.36803504 70.71266546
332 42 1 17.92544065 37.81435107 70.66452801
333 42 1 18.39797140 38.44419991 71.41013516
334 42 1 19.35144869 38.61387734 71.53663284
335 42 1 18.98318575 38.92038927 71.39967868
336 42 3 18.30386274 39.61610178 71.81414655
337 43 2 33.54698905 69.58452314 58.07549816
338 43 1 32.77173445 70.29834779 58.18492604
339 43 1 33.10671050 70.84745705 58.96798781
340 43 1 32.95372116 71.21775631 59.12306038
341 43 1 33.42646704 71.54943714 59.95891579
342 43 1 33.74794682 71.28055841 60.03838070
343 43 1 33.09816357 71.47620871 60.92638190
344 43 3 32.75672469 70.52621510 60.89009626
345 44 2 44.84980594 78.88685022 36.82389277
346 44 1 44.90565442 78.30551625 37.73682209
347 44 1 44.78439187 78.61483376 38.18930405
348 44 1 44.70632621 78.88880098 38.05657148
349 44 1 44.45742636 78.76982797 38.35158449
350 44 1 43.73203919 78.25427484 37.89616735
351 44 1 43.41445222 78.93790707 37.88944594
352 44 3 43.24830264 79.03339548 38.51709093
353 45 2 58.48234929 34.91042469 19.58994165
354 45 1 57.98094704 35.78059743 20.50773413
355 45 1 58.10941034 35.55120451 21.00462370
356 45 1 57.89068194 36.46881874 21.71151908
357 45 1 58.35814262 36.00172273 22.29872552
358 45 1 58.23747287 35.89088972 22.07933271
359 45 1 58.19480618 36.20751049 22.59793066
360 45 3 58.71497860 38.20628316 22.43078959
361 46 2 71.02647231 48.37242288 25.83295917
362 46 1 70.38729375 49.11048717 26.02077180
363 46 1 70.50087743 49.08117563 26.59548930
364 46 1 70.25210114 49.35404472 28.09762783
365 46 1 70.21182704 49.03475404 27.55419774
366 46 1 70.72775162 49.11882241 27.16291249
367 46 1 70.29039556 49.18206113 26.62809669
368 46 3 71.55363700 49.11688143 26.57111084
369 47 2 10.14736466 88.22605983 79.22757929
370 47 1 9.98403347 88.25862515 78.55625284
371 47 1 11.01493091 88.57073948 79.35350193
372 47 1 11.74210181 88.48824243 80.81454419
373 47 1 11.86151263 87.44237249 79.50766740
374 47 1 11.91128994 87.99602911 79.59697298
375 47 1 12.96559515 87.87076885 79.97289325
376 47 3 13.44032014 87.32215660 80.19939256
377 48 2 40.69241203 45.46581303 53.14176484
378 48 1 41.31123069 45.07289254 53.61467958
379 48 1 41.97955363 45.14046958 54.09612924
380 48 1 42.47159625 45.87162805 54.18636393
381 48 1 42.79305919 46.03080278 54.26938918
382 48 1 42.48166058 45.88121101 53.66419606
383 48 1 42.41064403 46.32153972 54.06412539
384 48 3 42.88479887 46.29827809 54.90898070
385 49 2 25.03318117 51.86122618 79.83644587
386 49 1 24.64273562 51.49462662 80.30827996
387 49 1 24.70509520 51.69207926 82.12430719
388 49 1 25.07323094 51.80332942 82.59093941
389 49 1 24.76894636 51.74458351 82.89021737
390 49 1 24.34043089 51.76981925 82.82669343
391 49 1 24.44648451 50.79425919 83.89304314
392 49 3 24.44010885 51.15520552 83.33958513
393 50 2 24.69459240 42.98617434 55.23038222
394 50 1 25.11418657 42.49807251 54.70702455
395 50 1 25.35115389 42.94624829 55.28383794
396 50 1 25.37836103 43.14252370 54.86970761
397 50 1 26.18288047 43.84502701 55.55357041
398 50 1 25.30156829 44.39649817 55.17575586
399 50 1 25.62868617 44.68701104 55.92185193
400 50 3 25.56104900 44.53130942 55.38170976
401 51 2 70.66778654 43.12175325 88.51507758
402 51 1 71.09373267 42.94064364 88.22592918
403 51 1 71.68447473 43.47316452 87.69190159
404 51 1 71.62283374 43.50340794 88.11048621
405 51 1 71.23369045 43.29698278 88.07855458
406 51 1 71.66599292 43.84472502 87.79982129
407 51 1 72.70979502 44.12174966 87.37316517
408 51 3 71.84792825 43.86629035 86.03402624
409 52 2 9.03774902 90.64328261 55.25381468
410 52 1 9.35498733 89.68768409 55.12046297
411 52 1 9.78656233 88.46598084 54.67586350
412 52 1 10.17522669 88.52628824 53.54656547
413 52 1 9.91260484 88.56665764 54.77274925
414 52 1 9.68779814 88.07230814 54.94269757
415 52 1 9.90927894 88.42904167 55.80247268
416 52 3 9.90056387 87.66744881 55.85596001
417 53 2 47.26801453 44.94387832 50.38019067
418 53 1 46.87491561 45.41799259 50.98748483
419 53 1 46.79770041 45.99497127 51.11478305
420 53 1 46.93182955 45.94159027 51.60955168
421 53 1 48.62018228 46.10435944 50.97133165
422 53 1 48.51895852 45.80117439 51.18987448
423 53 1 48.47067020 47.29548244 51.65193452
424 53 3 49.57478539 46.92041037 51.56251909
425 54 2 45.48554584 26.64068314 34.60953741
426 54 1 44.62447737 27.55880622 33.82529181
427 54 1 44.48073421 27.48719581 32.88316751
428 54 1 45.93575288 27.42062497 33.86317812
429 54 1 45.56520368 26.60494170 34.01711657
430 54 1 45.70336879 28.31860218 33.43649381
431 54 1 44.82991112 27.93897842 33.63884147
432 54 3 45.18272245 27.53485702 33.46420806
433 55 2 70.69470008 29.09035574 19.92422894
434 55 1 70.79470258 27.51967653 19.38855238
435 55 1 71.06537663 27.53555788 19.30467524
436 55 1 72.01836829 27.39136931 18.69532089
437 55 1 72.16206555 27.53342333 18.05669607
438 55 1 72.76295309 28.53999953 17.73834927
439 55 1 72.28105299 28.51430350 18.48021711
440 55 3 71.97771813 28.11494247 18.16121723
441 56 2 82.29102467 49.36713467 75.93639708
442 56 1 82.21521694 50.08462856 77.25890982
443 56 1 81.90429082 50.70867084 77.43894339
444 56 1 83.66038994 50.22405445 77.26373529
445 56 1 83.74501461 49.42400021 77.16587003
446 56 1 84.18058303 48.61203596 77.26342252
447 56 1 85.23624594 48.28977983 76.76771513
448 56 3 83.79570595 48.24980365 75.85014745
449 57 2 39.33106434 25.98996081 71.80424307
450 57 1 38.89590508 26.39028376 71.55462165
451 57 1 38.26550809 26.12348434 71.71483008
452 57 1 38.07643265 26.44979849 72.97601713
453 57 1 38.45227757 26.90768438 72.61211881
454 57 1 39.24229247 27.13237218 73.21623820
455 57 1 38.81276346 27.28718982 71.87631522
456 57 3 38.62495004 26.81785503 71.31298175
457 58 2 69.26189835 62.51780031 49.51991361
458 58 1 69.19606278 62.84064371 50.11884128
459 58 1 68.28427445 62.54243984 49.72647802
460 58 1 68.70118957 63.09728303 49.50247876
461 58 1 68.40042978 62.52427998 49.72555441
462 58 1 69.37522822 62.75354523 49.33001638
463 58 1 68.90412772 62.35152833 48.38709197
464 58 3 69.91494437 62.40243608 48.20419742
465 59 2 20.04596698 23.09389670 51.33265794
466 59 1 20.21058254 23.73785638 51.38179018
467 59 1 20.00552538 23.98218874 51.80290850
468 59 1 20.64185985 24.10510262 51.66541576
469 59 1 20.43408759 24.28999348 51.39047450
470 59 1 20.25138508 24.60921914 51.73566020
471 59 1 20.54912360 24.18402047 50.90880232
472 59 3 20.71398426 24.25639570 50.69580624
473 60 2 27.51590998 29.22285608 19.30239226
474 60 1 27.75220517 28.66398022 19.18107750
475 60 1 27.27790019 27.83366857 19.43742620
476 60 1 25.64359254 27.80218030 19.89118036
477 60 1 25.87849746 26.91162840 20.03420912
478 60 1 24.82511142 26.40365129 20.86416342
479 60 1 24.91985760 27.08608269 20.23328351
480 60 3 23.72127738 26.65505503 20.97576254
481 61 2 24.28075876 34.16719398 54.42962914
482 61 1 24.23145944 34.05339700 56.10760348
483 61 1 24.28565278 35.07741166 56.00971745
484 61 1 25.08693614 34.45663189 55.72474334
485 61 1 25.29845231 34.13274831 55.49520769
486 61 1 25.21304784 33.82792664 56.40002886
487 61 1 25.87589856 33.02788354 57.39966361
488 61 3 25.86335540 33.02030373 57.31418231
489 62 2 20.74752554 67.15351613 73.38091115
490 62 1 20.78898299 66.40910628 74.46582980
491 62 1 20.30905596 65.90888518 74.06478581
492 62 1 20.40334169 66.35662783 73.87425095
493 62 1 20.43345324 66.17557651 74.63530232
494 62 1 20.58185578 65.21141237 75.50525466
495 62 1 20.79321025 66.34314577 75.16896339
496 62 3 20.52468626 66.26025845 74.37479794
497 63 2 82.16394919 18.46548834 51.67992814
498 63 1 80.79228573 19.22967754 51.90791113
499 63 1 81.28664953 19.27410481 52.03877035
500 63 1 81.34041049 19.32477963 51.46050008
501 63 1 81.96387830 19.47126638 51.70438243
502 63 1 82.18492697 19.31616686 51.69114487
503 63 1 81.43278163 19.48885009 51.87278578
504 63 3 81.31452382 18.51693638 52.66629136
505 64 2 87.41446561 28.00919097 77.74243137
506 64 1 87.09092216 27.79601835 77.12039634
507 64 1 86.77438902 29.00912883 77.82450269
508 64 1 87.95264293 28.67203121 76.75316218
509 64 1 87.18609045 27.16975166 77.40138133
510 64 1 87.91659223 27.25362684 77.64101326
511 64 1 88.15119694 27.20854565 78.08457784
512 64 3 87.58634820 26.97494921 78.02101342
513 65 2 31.75125913 46.66529170 29.39436474
514 65 1 31.97275978 45.26032953 29.94471026
515 65 1 32.19724846 45.72645055 29.92830377
516 65 1 32.55795468 45.00007078 29.82529678
517 65 1 31.96361166 44.72168681 30.52405497
518 65 1 32.92512419 44.76261138 30.28944675
519 65 1 33.39698350 45.04885238 31.41860699
520 65 3 33.78223663 43.71734495 31.47416645
521 66 2 54.55464541 33.72770917 73.24092332
522 66 1 54.60894446 33.54460055 74.13168507
523 66 1 54.84578350 33.79981563 74.24431171
524 66 1 55.57046681 33.17827624 74.96332555
525 66 1 55.45463198 34.05773253 75.80537643
526 66 1 55.76344537 33.81706281 75.98927383
527 66 1 55.98929762 32.99639785 75.82343757
528 66 3 55.60752689 33.80950875 76.82598642
529 67 2 34.89880245 89.50323172 8.15585427
530 67 1 35.07084721 89.99192636 9.21060147
531 67 1 34.35152344 90.54869123 9.14582026
532 67 1 33.95754005 90.36878827 8.72602829
533 67 1 34.23437688 90.38819651 9.42827184
534 67 1 33.94877855 89.32983857 8.87584216
535 67 1 34.16333763 88.49810099 8.46082479
536 67 3 34.48860493 87.72544916 8.96267641
537 68 2 36.69772308 51.84946933 56.35297883
538 68 1 36.42612490 51.63675206 56.17998025
539 68 1 36.45161267 51.59972780 55.76611668
540 68 1 35.90192755 52.80509306 55.14674956
541 68 1 35.82815367 53.50921053 55.73076164
542 68 1 35.42380262 54.67681497 56.76048841
543 68 1 35.25656559 53.97908190 57.13730205
544 68 3 35.16544883 53.82449644 56.68608279
545 69 2 37.68919035 90.47012091 61.64184562
546 69 1 36.51114708 89.11600194 62.21047370
547 69 1 36.03829016 89.52681479 62.28609093
548 69 1 36.76955130 90.06362448 62.14013053
549 69 1 36.69039373 90.26126714 62.58177731
550 69 1 36.34306944 89.40141245 62.65434242
551 69 1 36.33130879 89.32494406 62.09299561
552 69 3 36.69350670 88.34458440 61.82814991
553 70 2 70.68585940 36.73306650 42.00728005
554 70 1 70.96024697 36.99369152 41.05790889
555 70 1 71.55681908 37.09161806 41.35746120
556 70 1 71.74885076 37.14245525 42.07638441
557 70 1 72.59329741 36.08819524 41.64494235
558 70 1 72.51392451 34.85558187 42.50565937
559 70 1 72.08533508 35.19768703 42.64912877
560 70 3 71.97857650 34.63568279 42.45947162
561 71 2 87.74746095 64.49914014 53.77709809
562 71 1 87.53904257 64.37598050 54.54687783
563 71 1 87.72608099 64.00791074 53.84111735
564 71 1 87.50989271 63.50301627 53.61946476
565 71 1 88.31211358 63.92149111 53.77100812
566 71 1 88.56500473 64.93391270 53.13627650
567 71 1 88.84150184 64.83621650 53.23739208
568 71 3 88.90328928 64.67373905 53.56935128
569 72 2 44.36076737 55.71150096 51.43787466
570 72 1 43.83156627 55.16961934 52.55599286
571 72 1 43.33595152 54.97254763 52.13207121
572 72 1 43.00453467 54.60697997 50.93866811
573 72 1 44.39311841 54.20932309 51.17651497
574 72 1 44.36655893 55.00317788 51.59354033
575 72 1 45.03463468 55.69231797 52.09437791
576 72 3 45.07241827 56.23321214 51.19828094
577 73 2 22.27139819 18.85119331 34.38339669
578 73 1 21.52518935 19.63483052 34.01463016
579 73 1 21.90248225 18.59162996 33.92959965
580 73 1 21.54858608 18.16236836 33.56501179
581 73 1 22.58542734 18.15950902 33.77715764
582 73 1 23.82756630 17.35422947 34.67166372
583 73 1 23.63129661 17.00977137 34.45223592
584 73 3 22.60810731 16.14540031 33.81673025
585 74 2 23.24183640 47.05277632 37.83025553
586 74 1 23.04516513 47.28084598 38.09472195
587 74 1 22.92810825 47.42594994 37.77016328
588 74 1 23.26077187 47.31056316 37.80623299
589 74 1 23.42051854 47.40756176 37.40817151
590 74 1 22.65931532 47.38166006 37.09537098
591 74 1 22.36698137 47.33365866 36.69945811
592 74 3 22.63623368 47.57474007 36.19450070
593 75 2 36.56703284 47.69037584 41.04139430
594 75 1 36.93350342 47.69441088 41.56318571
595 75 1 37.53128477 47.95936919 40.51947457
596 75 1 37.61652061 48.08378962 40.99137914
597 75 1 37.05986066 48.49678394 41.20201065
598 75 1 37.30132045 47.79245633 40.71287816
599 75 1 37.95872021 48.27472720 40.67181299
600 75 3 38.58885910 48.43259779 40.43877234
601 76 2 23.55060739 25.29932570 21.51640469
602 76 1 23.69001070 24.27266496 21.20922210
603 76 1 23.86368450 24.13438754 20.78993090
604 76 1 23.22843591 24.25598065 20.58065829
605 76 1 23.03554978 24.08998434 20.21000226
606 76 1 22.84644025 23.73766188 20.22606194
607 76 1 22.05892461 23.10798988 20.24041882
608 76 3 21.96241466 23.19541081 21.38930810
609 77 2 60.70173920 43.53212296 50.12709775
610 77 1 60.63159110 43.07407710 49.06077569
611 77 1 59.81947348 41.73416041 48.41681869
612 77 1 58.90770638 41.17797437 48.40234877
613 77 1 58.67084404 41.68109777 48.91505322
614 77 1 59.25285753 42.16972207 49.06498087
615 77 1 58.95685907 42.42576402 48.92051327
616 77 3 58.83951244 42.65724893 48.29372498
617 78 2 31.55306371 30.99228432 76.09735156
618 78 1 32.19176975 33.14066114 75.29381102
619 78 1 31.82075772 31.82327238 74.79992193
620 78 1 32.90198837 32.74500845 74.21740352
621 78 1 32.71652040 32.27324941 73.44700937
622 78 1 32.57608614 32.08440703 73.49977828
623 78 1 32.72502197 32.48266133 74.28464684
624 78 3 32.67920373 32.36233935 74.28866841
625 79 2 56.60679021 88.68701099 14.15967136
626 79 1 56.30893457 89.10913509 13.57126095
627 79 1 56.77296386 88.31207375 13.91939479
628 79 1 57.10952150 88.19080334 13.90539787
629 79 1 56.97656819 89.15099387 13.65435342
630 79 1 56.55913616 89.36613578 14.28760448
631 79 1 56.75037328 89.28178711 14.87218564
632 79 3 56.31627038 88.83597545 14.16479046
633 80 2 39.53745959 90.75274811 28.40681586
634 80 1 39.67819049 90.98551359 29.39891469
635 80 1 39.92067194 90.70292500 30.18815585
636 80 1 40.52891099 91.36401017 30.79685358
637 80 1 40.81975694 90.53419561 30.19449895
638 80 1 41.94348487 90.55831117 29.14437592
639 80 1 41.97382668 91.10650753 29.36839592
640 80 3 41.98047368 89.78130717 29.40123246
641 81 2 79.41326049 61.91914838 88.09440550
642 81 1 79.38131879 61.66521563 88.02177594
643 81 1 79.53393467 61.37057567 87.51500561
644 81 1 78.82438721 61.43420409 87.30893697
645 81 1 78.63847309 60.56333971 86.84240910
646 81 1 77.55377714 61.10235909 87.50965384
647 81 1 77.78102379 61.03146869 87.76912057
648 81 3 76.92698015 60.26838893 88.43328856
649 82 2 12.48883924 83.34789209 44.33428217
650 82 1 11.08792613 82.95506835 44.79602969
651 82 1 11.82815660 81.50629230 43.89135045
652 82 1 11.48904274 82.06586376 44.58121270
653 82 1 12.38827725 83.02050076 44.33104454
654 82 1 11.81549037 83.54066180 44.17774879
655 82 1 11.82539784 83.32887943 43.94644908
656 82 3 12.34044520 82.74396578 42.93953510
657 83 2 34.52413396 52.35783618 34.52472304
658 83 1 34.43335836 51.20839665 34.01112716
659 83 1 35.03686333 51.09746012 33.60813427
660 83 1 35.66661563 50.75964776 34.02216234
661 83 1 35.77196672 50.97361384 34.59689656
662 83 1 37.04211679 51.68419004 34.09107795
663 83 1 36.38497565 51.47605432 33.96950315
664 83 3 36.76235580 51.47101453 34.06074141
665 84 2 86.84913201 68.53416524 11.99714561
666 84 1 87.80171694 68.96112954 12.02623038